Write by polyGraft 
 2619
    1   PE   C1    1   1.839   2.076   3.731
    1   PE   C2    2   1.845   2.139   4.196
    1   PE   C3    3   1.851   2.202   4.662
    1   PE   C4    4   1.857   2.266   5.128
    1   PE   C5    5   1.863   2.329   5.593
    1   PE   C6    6   1.868   2.392   6.059
    1  PEO  EO1    7   2.310   1.604   3.723
    1  PEO  EO2    8   2.393   1.568   4.041
    1  PEO  EO3    9   2.475   1.533   4.358
    1  PEO  EO4   10   2.557   1.498   4.676
    1  PEO  EO5   11   2.640   1.463   4.993
    1  PEO  EO6   12   2.722   1.428   5.311
    1   PE   C1   13   1.368   1.604   3.725
    1   PE   C2   14   1.261   1.553   4.179
    1   PE   C3   15   1.155   1.503   4.634
    1   PE   C4   16   1.048   1.452   5.089
    1   PE   C5   17   0.941   1.402   5.544
    1   PE   C6   18   0.835   1.351   5.999
    1  PEO  EO1   19   2.306   2.540   3.709
    1  PEO  EO2   20   2.384   2.655   4.008
    1  PEO  EO3   21   2.462   2.769   4.308
    1  PEO  EO4   22   2.539   2.884   4.607
    1  PEO  EO5   23   2.617   2.999   4.907
    1  PEO  EO6   24   2.695   3.113   5.206
    1  PEO  EO1   25   2.072   0.906   3.705
    1  PEO  EO2   26   2.112   0.764   4.000
    1  PEO  EO3   27   2.152   0.622   4.295
    1  PEO  EO4   28   2.193   0.480   4.590
    1  PEO  EO5   29   2.233   0.338   4.886
    1  PEO  EO6   30   2.273   0.196   5.181
    1   PE   C1   31   1.137   2.307   3.710
    1   PE   C2   32   0.983   2.418   4.140
    1   PE   C3   33   0.830   2.530   4.570
    1   PE   C4   34   0.676   2.641   5.000
    1   PE   C5   35   0.522   2.753   5.430
    1   PE   C6   36   0.368   2.864   5.860
    1  PEO  EO1   37   2.771   2.072   3.703
    1  PEO  EO2   38   2.919   2.112   3.995
    1  PEO  EO3   39   3.067   2.151   4.287
    1  PEO  EO4   40   3.215   2.191   4.580
    1  PEO  EO5   41   3.363   2.231   4.872
    1  PEO  EO6   42   3.511   2.271   5.164
    1   PE   C1   43   1.143   0.911   3.695
    1   PE   C2   44   0.998   0.717   4.098
    1   PE   C3   45   0.854   0.523   4.501
    1   PE   C4   46   0.710   0.329   4.905
    1   PE   C5   47   0.566   0.135   5.308
    1   PE   C6   48   0.422  -0.059   5.711
    1  PEO  EO1   49   1.839   2.997   3.692
    1  PEO  EO2   50   1.842   3.173   3.971
    1  PEO  EO3   51   1.846   3.349   4.251
    1  PEO  EO4   52   1.849   3.525   4.530
    1  PEO  EO5   53   1.853   3.701   4.809
    1  PEO  EO6   54   1.856   3.876   5.088
    1   PE   C1   55   2.534   0.911   3.694
    1   PE   C2   56   2.688   0.719   4.094
    1   PE   C3   57   2.841   0.526   4.494
    1   PE   C4   58   2.994   0.333   4.895
    1   PE   C5   59   3.147   0.141   5.295
    1   PE   C6   60   3.301  -0.052   5.696
    1   PE   C1   61   0.679   1.839   3.695
    1   PE   C2   62   0.436   1.844   4.097
    1   PE   C3   63   0.193   1.849   4.499
    1   PE   C4   64  -0.051   1.854   4.901
    1   PE   C5   65  -0.294   1.859   5.303
    1   PE   C6   66  -0.537   1.864   5.706
    1   PE   C1   67   2.765   2.534   3.692
    1   PE   C2   68   2.966   2.686   4.089
    1   PE   C3   69   3.167   2.837   4.485
    1   PE   C4   70   3.368   2.989   4.882
    1   PE   C5   71   3.569   3.141   5.279
    1   PE   C6   72   3.770   3.293   5.676
    1  PEO  EO1   73   1.605   0.666   3.481
    1  PEO  EO2   74   1.570   0.480   3.751
    1  PEO  EO3   75   1.536   0.294   4.021
    1  PEO  EO4   76   1.502   0.107   4.292
    1  PEO  EO5   77   1.468  -0.079   4.562
    1  PEO  EO6   78   1.434  -0.266   4.832
    1   PE   C1   79   1.141   3.003   3.468
    1   PE   C2   80   0.993   3.263   3.831
    1   PE   C3   81   0.845   3.523   4.193
    1   PE   C4   82   0.697   3.784   4.555
    1   PE   C5   83   0.549   4.044   4.918
    1   PE   C6   84   0.401   4.304   5.280
    1  PEO  EO1   85   3.229   1.375   3.461
    1  PEO  EO2   86   3.440   1.310   3.706
    1  PEO  EO3   87   3.651   1.244   3.952
    1  PEO  EO4   88   3.862   1.179   4.197
    1  PEO  EO5   89   4.072   1.113   4.442
    1  PEO  EO6   90   4.283   1.047   4.688
    1  PEO  EO1   91   0.673   1.140   3.471
    1  PEO  EO2   92   0.496   1.034   3.728
    1  PEO  EO3   93   0.318   0.929   3.986
    1  PEO  EO4   94   0.141   0.824   4.243
    1  PEO  EO5   95  -0.037   0.719   4.501
    1  PEO  EO6   96  -0.215   0.614   4.758
    1  PEO  EO1   97   2.302   3.229   3.460
    1  PEO  EO2   98   2.374   3.438   3.704
    1  PEO  EO3   99   2.447   3.648   3.949
    1  PEO  EO4  100   2.519   3.858   4.193
    1  PEO  EO5  101   2.591   4.068   4.437
    1  PEO  EO6  102   2.663   4.278   4.681
    1   PE   C1  103   2.303   0.447   3.463
    1   PE   C2  104   2.407   0.154   3.815
    1   PE   C3  105   2.511  -0.139   4.168
    1   PE   C4  106   2.616  -0.432   4.520
    1   PE   C5  107   2.720  -0.724   4.873
    1   PE   C6  108   2.824  -1.017   5.225
    1  PEO  EO1  109   0.447   2.303   3.463
    1  PEO  EO2  110   0.241   2.376   3.710
    1  PEO  EO3  111   0.036   2.449   3.958
    1  PEO  EO4  112  -0.170   2.523   4.205
    1  PEO  EO5  113  -0.375   2.596   4.453
    1  PEO  EO6  114  -0.581   2.669   4.700
    1  PEO  EO1  115   3.229   2.302   3.460
    1  PEO  EO2  116   3.438   2.374   3.704
    1  PEO  EO3  117   3.648   2.447   3.949
    1  PEO  EO4  118   3.858   2.519   4.193
    1  PEO  EO5  119   4.068   2.591   4.437
    1  PEO  EO6  120   4.278   2.663   4.681
    1   PE   C1  121   1.138   0.438   3.240
    1   PE   C2  122   0.986   0.129   3.560
    1   PE   C3  123   0.835  -0.181   3.880
    1   PE   C4  124   0.683  -0.490   4.200
    1   PE   C5  125   0.531  -0.799   4.519
    1   PE   C6  126   0.379  -1.108   4.839
    1  PEO  EO1  127   1.375   3.461   3.229
    1  PEO  EO2  128   1.310   3.706   3.440
    1  PEO  EO3  129   1.244   3.952   3.651
    1  PEO  EO4  130   1.179   4.197   3.862
    1  PEO  EO5  131   1.113   4.442   4.072
    1  PEO  EO6  132   1.047   4.688   4.283
    1   PE   C1  133   3.009   0.903   3.243
    1   PE   C2  134   3.279   0.696   3.566
    1   PE   C3  135   3.550   0.490   3.890
    1   PE   C4  136   3.821   0.283   4.214
    1   PE   C5  137   4.091   0.076   4.538
    1   PE   C6  138   4.362  -0.131   4.861
    1   PE   C1  139   0.214   1.374   3.232
    1   PE   C2  140  -0.131   1.280   3.537
    1   PE   C3  141  -0.476   1.185   3.842
    1   PE   C4  142  -0.821   1.090   4.147
    1   PE   C5  143  -1.166   0.995   4.452
    1   PE   C6  144  -1.510   0.900   4.757
    1   PE   C1  145   2.773   3.241   3.007
    1   PE   C2  146   2.989   3.561   3.275
    1   PE   C3  147   3.204   3.882   3.543
    1   PE   C4  148   3.420   4.202   3.811
    1   PE   C5  149   3.635   4.523   4.079
    1   PE   C6  150   3.851   4.843   4.347
    1   PE   C1  151   1.839  -0.019   3.000
    1   PE   C2  152   1.844  -0.413   3.255
    1   PE   C3  153   1.849  -0.808   3.510
    1   PE   C4  154   1.854  -1.203   3.765
    1   PE   C5  155   1.859  -1.598   4.020
    1   PE   C6  156   1.864  -1.993   4.275
    1   PE   C1  157   0.667   3.011   3.011
    1   PE   C2  158   0.403   3.286   3.286
    1   PE   C3  159   0.139   3.561   3.561
    1   PE   C4  160  -0.125   3.836   3.836
    1   PE   C5  161  -0.389   4.111   4.111
    1   PE   C6  162  -0.653   4.386   4.386
    1   PE   C1  163   3.692   1.839   2.997
    1   PE   C2  164   4.090   1.844   3.248
    1   PE   C3  165   4.488   1.849   3.498
    1   PE   C4  166   4.885   1.854   3.748
    1   PE   C5  167   5.283   1.859   3.999
    1   PE   C6  168   5.681   1.864   4.249
    1   PE   C1  169   0.432   0.667   2.777
    1   PE   C2  170   0.113   0.402   2.999
    1   PE   C3  171  -0.205   0.137   3.220
    1   PE   C4  172  -0.524  -0.128   3.442
    1   PE   C5  173  -0.843  -0.392   3.664
    1   PE   C6  174  -1.162  -0.657   3.885
    1   PE   C1  175   1.839   3.692   2.997
    1   PE   C2  176   1.844   4.090   3.248
    1   PE   C3  177   1.849   4.488   3.498
    1   PE   C4  178   1.854   4.885   3.748
    1   PE   C5  179   1.859   5.283   3.999
    1   PE   C6  180   1.864   5.681   4.249
    1   PE   C1  181   2.775   0.435   3.009
    1   PE   C2  182   2.994   0.120   3.282
    1   PE   C3  183   3.213  -0.195   3.554
    1   PE   C4  184   3.432  -0.509   3.826
    1   PE   C5  185   3.650  -0.824   4.098
    1   PE   C6  186   3.869  -1.139   4.370
    1   PE   C1  187  -0.013   2.302   2.996
    1   PE   C2  188  -0.399   2.404   3.245
    1   PE   C3  189  -0.784   2.507   3.494
    1   PE   C4  190  -1.169   2.609   3.743
    1   PE   C5  191  -1.554   2.712   3.992
    1   PE   C6  192  -1.940   2.814   4.241
    1  PEO  EO1  193   3.469   2.771   2.771
    1  PEO  EO2  194   3.725   2.918   2.918
    1  PEO  EO3  195   3.980   3.066   3.066
    1  PEO  EO4  196   4.236   3.213   3.213
    1  PEO  EO5  197   4.492   3.361   3.361
    1  PEO  EO6  198   4.747   3.509   3.509
    1   PE   C1  199   1.142  -0.020   2.768
    1   PE   C2  200   0.996  -0.416   2.974
    1   PE   C3  201   0.851  -0.813   3.180
    1   PE   C4  202   0.705  -1.209   3.386
    1   PE   C5  203   0.560  -1.606   3.592
    1   PE   C6  204   0.414  -2.003   3.798
    1   PE   C1  205   0.906   3.471   2.772
    1   PE   C2  206   0.704   3.839   2.984
    1   PE   C3  207   0.503   4.206   3.196
    1   PE   C4  208   0.301   4.574   3.409
    1   PE   C5  209   0.099   4.942   3.621
    1   PE   C6  210  -0.103   5.309   3.833
    1   PE   C1  211   3.693   1.143   2.766
    1   PE   C2  212   4.093   1.000   2.968
    1   PE   C3  213   4.492   0.858   3.170
    1   PE   C4  214   4.892   0.715   3.373
    1   PE   C5  215   5.291   0.572   3.575
    1   PE   C6  216   5.691   0.429   3.777
    1   PE   C1  217  -0.020   1.142   2.768
    1   PE   C2  218  -0.416   0.996   2.974
    1   PE   C3  219  -0.813   0.851   3.180
    1   PE   C4  220  -1.209   0.705   3.386
    1   PE   C5  221  -1.606   0.560   3.592
    1   PE   C6  222  -2.003   0.414   3.798
    1   PE   C1  223   2.765   3.692   2.534
    1   PE   C2  224   2.966   4.089   2.686
    1   PE   C3  225   3.167   4.485   2.837
    1   PE   C4  226   3.368   4.882   2.989
    1   PE   C5  227   3.569   5.279   3.141
    1   PE   C6  228   3.770   5.676   3.293
    1   PE   C1  229   2.535  -0.018   2.767
    1   PE   C2  230   2.690  -0.412   2.972
    1   PE   C3  231   2.845  -0.806   3.176
    1   PE   C4  232   2.999  -1.200   3.381
    1   PE   C5  233   3.154  -1.594   3.585
    1   PE   C6  234   3.309  -1.988   3.790
    1   PE   C1  235  -0.018   2.767   2.535
    1   PE   C2  236  -0.412   2.972   2.690
    1   PE   C3  237  -0.806   3.176   2.845
    1   PE   C4  238  -1.200   3.381   2.999
    1   PE   C5  239  -1.594   3.585   3.154
    1   PE   C6  240  -1.988   3.790   3.309
    1  PEO  EO1  241   3.709   2.306   2.540
    1  PEO  EO2  242   4.008   2.384   2.655
    1  PEO  EO3  243   4.308   2.462   2.769
    1  PEO  EO4  244   4.607   2.539   2.884
    1  PEO  EO5  245   4.907   2.617   2.999
    1  PEO  EO6  246   5.206   2.695   3.113
    1  PEO  EO1  247   0.672   0.205   2.539
    1  PEO  EO2  248   0.493  -0.047   2.653
    1  PEO  EO3  249   0.313  -0.300   2.766
    1  PEO  EO4  250   0.134  -0.553   2.880
    1  PEO  EO5  251  -0.046  -0.805   2.994
    1  PEO  EO6  252  -0.225  -1.058   3.107
    1  PEO  EO1  253   1.606   3.703   2.771
    1  PEO  EO2  254   1.573   3.996   2.919
    1  PEO  EO3  255   1.541   4.289   3.068
    1  PEO  EO4  256   1.508   4.582   3.216
    1  PEO  EO5  257   1.476   4.875   3.364
    1  PEO  EO6  258   1.443   5.168   3.513
    1   PE   C1  259   3.239   0.439   2.539
    1   PE   C2  260   3.556   0.132   2.700
    1   PE   C3  261   3.874  -0.175   2.862
    1   PE   C4  262   4.191  -0.481   3.023
    1   PE   C5  263   4.508  -0.788   3.184
    1   PE   C6  264   4.826  -1.095   3.346
    1   PE   C1  265  -0.249   1.607   2.535
    1   PE   C2  266  -0.691   1.562   2.689
    1   PE   C3  267  -1.133   1.518   2.843
    1   PE   C4  268  -1.575   1.473   2.997
    1   PE   C5  269  -2.016   1.428   3.151
    1   PE   C6  270  -2.458   1.384   3.305
    1  PEO  EO1  271   3.460   3.229   2.302
    1  PEO  EO2  272   3.704   3.438   2.374
    1  PEO  EO3  273   3.949   3.648   2.447
    1  PEO  EO4  274   4.193   3.858   2.519
    1  PEO  EO5  275   4.437   4.068   2.591
    1  PEO  EO6  276   4.681   4.278   2.663
    1  PEO  EO1  277   1.607  -0.249   2.535
    1  PEO  EO2  278   1.576  -0.559   2.643
    1  PEO  EO3  279   1.544  -0.870   2.751
    1  PEO  EO4  280   1.513  -1.180   2.859
    1  PEO  EO5  281   1.482  -1.490   2.967
    1  PEO  EO6  282   1.450  -1.800   3.075
    1  PEO  EO1  283   0.447   3.463   2.303
    1  PEO  EO2  284   0.241   3.710   2.376
    1  PEO  EO3  285   0.036   3.958   2.449
    1  PEO  EO4  286  -0.170   4.205   2.523
    1  PEO  EO5  287  -0.375   4.453   2.596
    1  PEO  EO6  288  -0.581   4.700   2.669
    1  PEO  EO1  289   3.723   1.604   2.310
    1  PEO  EO2  290   4.041   1.568   2.393
    1  PEO  EO3  291   4.358   1.533   2.475
    1  PEO  EO4  292   4.676   1.498   2.557
    1  PEO  EO5  293   4.993   1.463   2.640
    1  PEO  EO6  294   5.311   1.428   2.722
    1  PEO  EO1  295  -0.016   0.680   2.302
    1  PEO  EO2  296  -0.289   0.510   2.375
    1  PEO  EO3  297  -0.563   0.340   2.448
    1  PEO  EO4  298  -0.836   0.171   2.521
    1  PEO  EO5  299  -1.110   0.001   2.594
    1  PEO  EO6  300  -1.383  -0.168   2.666
    1  PEO  EO1  301   2.540   3.709   2.306
    1  PEO  EO2  302   2.655   4.008   2.384
    1  PEO  EO3  303   2.769   4.308   2.462
    1  PEO  EO4  304   2.884   4.607   2.539
    1  PEO  EO5  305   2.999   4.907   2.617
    1  PEO  EO6  306   3.113   5.206   2.695
    1  PEO  EO1  307   2.996  -0.013   2.302
    1  PEO  EO2  308   3.171  -0.284   2.374
    1  PEO  EO3  309   3.346  -0.554   2.446
    1  PEO  EO4  310   3.521  -0.825   2.518
    1  PEO  EO5  311   3.695  -1.095   2.590
    1  PEO  EO6  312   3.870  -1.366   2.662
    1   PE   C1  313  -0.249   2.535   2.071
    1   PE   C2  314  -0.689   2.688   2.125
    1   PE   C3  315  -1.130   2.842   2.180
    1   PE   C4  316  -1.571   2.996   2.234
    1   PE   C5  317  -2.012   3.149   2.289
    1   PE   C6  318  -2.453   3.303   2.344
    1  PEO  EO1  319   3.703   2.771   2.072
    1  PEO  EO2  320   3.995   2.919   2.112
    1  PEO  EO3  321   4.287   3.067   2.151
    1  PEO  EO4  322   4.580   3.215   2.191
    1  PEO  EO5  323   4.872   3.363   2.231
    1  PEO  EO6  324   5.164   3.511   2.271
    1   PE   C1  325   0.904  -0.032   2.073
    1   PE   C2  326   0.697  -0.450   2.131
    1   PE   C3  327   0.491  -0.868   2.190
    1   PE   C4  328   0.284  -1.286   2.248
    1   PE   C5  329   0.078  -1.705   2.306
    1   PE   C6  330  -0.128  -2.123   2.364
    1  PEO  EO1  331   0.906   3.705   2.072
    1  PEO  EO2  332   0.764   4.000   2.112
    1  PEO  EO3  333   0.622   4.295   2.152
    1  PEO  EO4  334   0.480   4.590   2.193
    1  PEO  EO5  335   0.338   4.886   2.233
    1  PEO  EO6  336   0.196   5.181   2.273
    1   PE   C1  337   3.705   0.906   2.072
    1   PE   C2  338   4.125   0.704   2.129
    1   PE   C3  339   4.546   0.501   2.187
    1   PE   C4  340   4.966   0.299   2.244
    1   PE   C5  341   5.387   0.097   2.301
    1   PE   C6  342   5.807  -0.106   2.358
    1   PE   C1  343  -0.250   1.142   2.071
    1   PE   C2  344  -0.694   0.998   2.126
    1   PE   C3  345  -1.138   0.853   2.181
    1   PE   C4  346  -1.582   0.709   2.236
    1   PE   C5  347  -2.026   0.564   2.291
    1   PE   C6  348  -2.469   0.420   2.346
    1  PEO  EO1  349   2.997   3.692   1.839
    1  PEO  EO2  350   3.173   3.971   1.842
    1  PEO  EO3  351   3.349   4.251   1.846
    1  PEO  EO4  352   3.525   4.530   1.849
    1  PEO  EO5  353   3.701   4.809   1.853
    1  PEO  EO6  354   3.876   5.088   1.856
    1  PEO  EO1  355   2.072  -0.261   2.072
    1  PEO  EO2  356   2.113  -0.586   2.113
    1  PEO  EO3  357   2.153  -0.911   2.153
    1  PEO  EO4  358   2.193  -1.236   2.193
    1  PEO  EO5  359   2.233  -1.561   2.233
    1  PEO  EO6  360   2.273  -1.886   2.273
    1  PEO  EO1  361   0.210   3.236   1.839
    1  PEO  EO2  362  -0.038   3.454   1.843
    1  PEO  EO3  363  -0.285   3.673   1.846
    1  PEO  EO4  364  -0.532   3.891   1.850
    1  PEO  EO5  365  -0.779   4.110   1.853
    1  PEO  EO6  366  -1.026   4.329   1.857
    1  PEO  EO1  367   3.731   2.076   1.839
    1  PEO  EO2  368   4.058   2.120   1.843
    1  PEO  EO3  369   4.384   2.165   1.847
    1  PEO  EO4  370   4.711   2.209   1.852
    1  PEO  EO5  371   5.038   2.254   1.856
    1  PEO  EO6  372   5.365   2.298   1.860
    1   PE   C1  373   0.440   0.207   1.839
    1   PE   C2  374   0.134  -0.151   1.844
    1   PE   C3  375  -0.171  -0.508   1.849
    1   PE   C4  376  -0.476  -0.865   1.855
    1   PE   C5  377  -0.782  -1.222   1.860
    1   PE   C6  378  -1.087  -1.579   1.865
    1   PE   C1  379   2.076   3.731   1.839
    1   PE   C2  380   2.139   4.196   1.845
    1   PE   C3  381   2.202   4.662   1.851
    1   PE   C4  382   2.266   5.128   1.857
    1   PE   C5  383   2.329   5.593   1.863
    1   PE   C6  384   2.392   6.059   1.868
    1  PEO  EO1  385   3.236   0.210   1.839
    1  PEO  EO2  386   3.454  -0.038   1.843
    1  PEO  EO3  387   3.673  -0.285   1.846
    1  PEO  EO4  388   3.891  -0.532   1.850
    1  PEO  EO5  389   4.110  -0.779   1.853
    1  PEO  EO6  390   4.329  -1.026   1.857
    1   PE   C1  391  -0.262   2.072   1.606
    1   PE   C2  392  -0.726   2.130   1.559
    1   PE   C3  393  -1.190   2.187   1.512
    1   PE   C4  394  -1.654   2.245   1.465
    1   PE   C5  395  -2.118   2.302   1.418
    1   PE   C6  396  -2.582   2.360   1.371
    1   PE   C1  397   3.692   2.997   1.839
    1   PE   C2  398   4.090   3.248   1.844
    1   PE   C3  399   4.488   3.498   1.849
    1   PE   C4  400   4.885   3.748   1.854
    1   PE   C5  401   5.283   3.999   1.859
    1   PE   C6  402   5.681   4.249   1.864
    1  PEO  EO1  403   1.373  -0.259   1.839
    1  PEO  EO2  404   1.304  -0.582   1.843
    1  PEO  EO3  405   1.235  -0.905   1.846
    1  PEO  EO4  406   1.166  -1.227   1.850
    1  PEO  EO5  407   1.097  -1.550   1.854
    1  PEO  EO6  408   1.028  -1.873   1.857
    1   PE   C1  409   0.679   3.695   1.839
    1   PE   C2  410   0.436   4.097   1.844
    1   PE   C3  411   0.193   4.499   1.849
    1   PE   C4  412  -0.051   4.901   1.854
    1   PE   C5  413  -0.294   5.303   1.859
    1   PE   C6  414  -0.537   5.706   1.864
    1  PEO  EO1  415   3.712   1.137   1.371
    1  PEO  EO2  416   4.015   1.028   1.300
    1  PEO  EO3  417   4.318   0.920   1.229
    1  PEO  EO4  418   4.622   0.811   1.158
    1  PEO  EO5  419   4.925   0.703   1.086
    1  PEO  EO6  420   5.229   0.594   1.015
    1  PEO  EO1  421  -0.032   0.903   1.605
    1  PEO  EO2  422  -0.327   0.758   1.572
    1  PEO  EO3  423  -0.621   0.613   1.538
    1  PEO  EO4  424  -0.916   0.467   1.505
    1  PEO  EO5  425  -1.210   0.322   1.471
    1  PEO  EO6  426  -1.504   0.177   1.438
    1  PEO  EO1  427   2.771   3.703   1.606
    1  PEO  EO2  428   2.919   3.996   1.573
    1  PEO  EO3  429   3.068   4.289   1.541
    1  PEO  EO4  430   3.216   4.582   1.508
    1  PEO  EO5  431   3.364   4.875   1.476
    1  PEO  EO6  432   3.513   5.168   1.443
    1  PEO  EO1  433   2.535  -0.249   1.607
    1  PEO  EO2  434   2.643  -0.559   1.576
    1  PEO  EO3  435   2.751  -0.870   1.544
    1  PEO  EO4  436   2.859  -1.180   1.513
    1  PEO  EO5  437   2.967  -1.490   1.482
    1  PEO  EO6  438   3.075  -1.800   1.450
    1   PE   C1  439  -0.030   2.774   1.605
    1   PE   C2  440  -0.445   2.989   1.558
    1   PE   C3  441  -0.860   3.205   1.511
    1   PE   C4  442  -1.275   3.420   1.464
    1   PE   C5  443  -1.690   3.636   1.417
    1   PE   C6  444  -2.105   3.851   1.369
    1   PE   C1  445   3.710   2.541   1.371
    1   PE   C2  446   4.139   2.705   1.271
    1   PE   C3  447   4.567   2.869   1.170
    1   PE   C4  448   4.996   3.033   1.070
    1   PE   C5  449   5.425   3.197   0.969
    1   PE   C6  450   5.854   3.361   0.869
    1  PEO  EO1  451   0.679  -0.017   1.375
    1  PEO  EO2  452   0.509  -0.291   1.309
    1  PEO  EO3  453   0.338  -0.566   1.243
    1  PEO  EO4  454   0.168  -0.841   1.177
    1  PEO  EO5  455  -0.002  -1.116   1.111
    1  PEO  EO6  456  -0.173  -1.391   1.045
    1   PE   C1  457   1.371   3.712   1.137
    1   PE   C2  458   1.270   4.144   0.982
    1   PE   C3  459   1.168   4.576   0.828
    1   PE   C4  460   1.067   5.008   0.673
    1   PE   C5  461   0.966   5.440   0.518
    1   PE   C6  462   0.865   5.872   0.364
    1  PEO  EO1  463   3.464   0.446   1.375
    1  PEO  EO2  464   3.712   0.240   1.308
    1  PEO  EO3  465   3.961   0.033   1.242
    1  PEO  EO4  466   4.210  -0.173   1.175
    1  PEO  EO5  467   4.458  -0.380   1.109
    1  PEO  EO6  468   4.707  -0.587   1.042
    1  PEO  EO1  469  -0.251   1.607   1.142
    1  PEO  EO2  470  -0.563   1.575   1.041
    1  PEO  EO3  471  -0.875   1.544   0.939
    1  PEO  EO4  472  -1.188   1.512   0.837
    1  PEO  EO5  473  -1.500   1.481   0.735
    1  PEO  EO6  474  -1.813   1.449   0.634
    1   PE   C1  475   3.229   3.461   1.375
    1   PE   C2  476   3.529   3.810   1.282
    1   PE   C3  477   3.830   4.160   1.189
    1   PE   C4  478   4.130   4.509   1.095
    1   PE   C5  479   4.430   4.859   1.002
    1   PE   C6  480   4.730   5.208   0.908
    1   PE   C1  481   1.839  -0.259   1.373
    1   PE   C2  482   1.844  -0.719   1.275
    1   PE   C3  483   1.849  -1.178   1.177
    1   PE   C4  484   1.855  -1.638   1.079
    1   PE   C5  485   1.860  -2.098   0.980
    1   PE   C6  486   1.865  -2.557   0.882
    1  PEO  EO1  487   0.438   3.240   1.138
    1  PEO  EO2  488   0.221   3.465   1.032
    1  PEO  EO3  489   0.004   3.689   0.925
    1  PEO  EO4  490  -0.213   3.914   0.818
    1  PEO  EO5  491  -0.431   4.138   0.712
    1  PEO  EO6  492  -0.648   4.363   0.605
    1   PE   C1  493   3.717   1.839   1.135
    1   PE   C2  494   4.160   1.845   0.976
    1   PE   C3  495   4.602   1.850   0.818
    1   PE   C4  496   5.045   1.856   0.660
    1   PE   C5  497   5.487   1.861   0.501
    1   PE   C6  498   5.930   1.867   0.343
    1   PE   C1  499   0.204   0.671   1.138
    1   PE   C2  500  -0.159   0.413   0.986
    1   PE   C3  501  -0.521   0.156   0.833
    1   PE   C4  502  -0.884  -0.101   0.681
    1   PE   C5  503  -1.247  -0.359   0.529
    1   PE   C6  504  -1.609  -0.616   0.376
    1  PEO  EO1  505   2.072   3.705   0.906
    1  PEO  EO2  506   2.112   4.000   0.764
    1  PEO  EO3  507   2.152   4.295   0.622
    1  PEO  EO4  508   2.193   4.590   0.480
    1  PEO  EO5  509   2.233   4.886   0.338
    1  PEO  EO6  510   2.273   5.181   0.196
    1   PE   C1  511   3.005   0.206   1.139
    1   PE   C2  512   3.270  -0.152   0.989
    1   PE   C3  513   3.535  -0.510   0.838
    1   PE   C4  514   3.800  -0.868   0.688
    1   PE   C5  515   4.064  -1.226   0.537
    1   PE   C6  516   4.329  -1.584   0.387
    1   PE   C1  517  -0.037   2.308   1.135
    1   PE   C2  518  -0.465   2.422   0.978
    1   PE   C3  519  -0.894   2.536   0.821
    1   PE   C4  520  -1.322   2.650   0.664
    1   PE   C5  521  -1.750   2.764   0.507
    1   PE   C6  522  -2.178   2.878   0.350
    1   PE   C1  523   3.471   2.772   0.906
    1   PE   C2  524   3.839   2.984   0.704
    1   PE   C3  525   4.206   3.196   0.503
    1   PE   C4  526   4.574   3.409   0.301
    1   PE   C5  527   4.942   3.621   0.099
    1   PE   C6  528   5.309   3.833  -0.103
    1   PE   C1  529   1.141  -0.022   0.909
    1   PE   C2  530   0.994  -0.422   0.711
    1   PE   C3  531   0.847  -0.822   0.513
    1   PE   C4  532   0.700  -1.223   0.316
    1   PE   C5  533   0.554  -1.623   0.118
    1   PE   C6  534   0.407  -2.023  -0.079
    1   PE   C1  535   1.143   3.695   0.911
    1   PE   C2  536   0.998   4.098   0.717
    1   PE   C3  537   0.854   4.501   0.523
    1   PE   C4  538   0.710   4.905   0.329
    1   PE   C5  539   0.566   5.308   0.135
    1   PE   C6  540   0.422   5.711  -0.059
    1   PE   C1  541   3.695   1.143   0.911
    1   PE   C2  542   4.098   0.998   0.717
    1   PE   C3  543   4.501   0.854   0.523
    1   PE   C4  544   4.905   0.710   0.329
    1   PE   C5  545   5.308   0.566   0.135
    1   PE   C6  546   5.711   0.422  -0.059
    1   PE   C1  547  -0.022   1.141   0.909
    1   PE   C2  548  -0.422   0.994   0.711
    1   PE   C3  549  -0.822   0.847   0.513
    1   PE   C4  550  -1.223   0.700   0.316
    1   PE   C5  551  -1.623   0.554   0.118
    1   PE   C6  552  -2.023   0.407  -0.079
    1   PE   C1  553   2.772   3.471   0.906
    1   PE   C2  554   2.984   3.839   0.704
    1   PE   C3  555   3.196   4.206   0.503
    1   PE   C4  556   3.409   4.574   0.301
    1   PE   C5  557   3.621   4.942   0.099
    1   PE   C6  558   3.833   5.309  -0.103
    1  PEO  EO1  559   2.302  -0.016   0.680
    1  PEO  EO2  560   2.375  -0.289   0.510
    1  PEO  EO3  561   2.448  -0.563   0.340
    1  PEO  EO4  562   2.521  -0.836   0.171
    1  PEO  EO5  563   2.594  -1.110   0.001
    1  PEO  EO6  564   2.666  -1.383  -0.168
    1   PE   C1  565   0.203   2.774   0.904
    1   PE   C2  566  -0.160   2.990   0.699
    1   PE   C3  567  -0.524   3.206   0.493
    1   PE   C4  568  -0.887   3.422   0.288
    1   PE   C5  569  -1.250   3.638   0.083
    1   PE   C6  570  -1.614   3.854  -0.123
    1   PE   C1  571   3.689   2.301   0.682
    1   PE   C2  572   4.082   2.403   0.445
    1   PE   C3  573   4.475   2.505   0.207
    1   PE   C4  574   4.867   2.607  -0.030
    1   PE   C5  575   5.260   2.709  -0.267
    1   PE   C6  576   5.653   2.811  -0.505
    1   PE   C1  577   0.665   0.430   0.900
    1   PE   C2  578   0.397   0.108   0.687
    1   PE   C3  579   0.130  -0.214   0.474
    1   PE   C4  580  -0.138  -0.537   0.261
    1   PE   C5  581  -0.406  -0.859   0.048
    1   PE   C6  582  -0.673  -1.181  -0.165
    1  PEO  EO1  583   1.839   3.695   0.679
    1  PEO  EO2  584   1.842   3.977   0.508
    1  PEO  EO3  585   1.846   4.260   0.337
    1  PEO  EO4  586   1.849   4.542   0.167
    1  PEO  EO5  587   1.853   4.824  -0.004
    1  PEO  EO6  588   1.857   5.107  -0.175
    1   PE   C1  589   3.013   0.665   0.665
    1   PE   C2  590   3.292   0.398   0.398
    1   PE   C3  591   3.571   0.130   0.130
    1   PE   C4  592   3.849  -0.138  -0.138
    1   PE   C5  593   4.128  -0.405  -0.405
    1   PE   C6  594   4.407  -0.673  -0.673
    1  PEO  EO1  595  -0.021   1.839   0.676
    1  PEO  EO2  596  -0.302   1.842   0.502
    1  PEO  EO3  597  -0.582   1.846   0.329
    1  PEO  EO4  598  -0.862   1.850   0.155
    1  PEO  EO5  599  -1.143   1.853  -0.019
    1  PEO  EO6  600  -1.423   1.857  -0.193
    1   PE   C1  601   3.011   3.011   0.667
    1   PE   C2  602   3.286   3.286   0.403
    1   PE   C3  603   3.561   3.561   0.139
    1   PE   C4  604   3.836   3.836  -0.125
    1   PE   C5  605   4.111   4.111  -0.389
    1   PE   C6  606   4.386   4.386  -0.653
    1   PE   C1  607   1.374   0.211   0.443
    1   PE   C2  608   1.278  -0.139   0.144
    1   PE   C3  609   1.181  -0.488  -0.155
    1   PE   C4  610   1.085  -0.838  -0.453
    1   PE   C5  611   0.989  -1.188  -0.752
    1   PE   C6  612   0.893  -1.537  -1.051
    1  PEO  EO1  613   0.902   3.011   0.433
    1  PEO  EO2  614   0.754   3.204   0.209
    1  PEO  EO3  615   0.606   3.397  -0.014
    1  PEO  EO4  616   0.459   3.590  -0.237
    1  PEO  EO5  617   0.311   3.783  -0.460
    1  PEO  EO6  618   0.164   3.976  -0.684
    1   PE   C1  619   3.464   1.375   0.446
    1   PE   C2  620   3.818   1.280   0.152
    1   PE   C3  621   4.172   1.185  -0.142
    1   PE   C4  622   4.526   1.091  -0.436
    1   PE   C5  623   4.880   0.996  -0.730
    1   PE   C6  624   5.234   0.901  -1.025
    1   PE   C1  625   0.435   1.137   0.435
    1   PE   C2  626   0.121   0.983   0.121
    1   PE   C3  627  -0.193   0.828  -0.193
    1   PE   C4  628  -0.507   0.674  -0.507
    1   PE   C5  629  -0.821   0.520  -0.821
    1   PE   C6  630  -1.135   0.366  -1.135
    1   PE   C1  631   2.303   3.463   0.447
    1   PE   C2  632   2.407   3.815   0.154
    1   PE   C3  633   2.511   4.168  -0.139
    1   PE   C4  634   2.616   4.520  -0.432
    1   PE   C5  635   2.720   4.873  -0.724
    1   PE   C6  636   2.824   5.225  -1.017
    1   PE   C1  637   2.540   0.436   0.436
    1   PE   C2  638   2.704   0.125   0.125
    1   PE   C3  639   2.868  -0.187  -0.187
    1   PE   C4  640   3.032  -0.498  -0.498
    1   PE   C5  641   3.196  -0.810  -0.810
    1   PE   C6  642   3.359  -1.121  -1.121
    1   PE   C1  643   0.444   2.304   0.212
    1   PE   C2  644   0.147   2.410  -0.136
    1   PE   C3  645  -0.151   2.516  -0.484
    1   PE   C4  646  -0.448   2.622  -0.832
    1   PE   C5  647  -0.746   2.728  -1.180
    1   PE   C6  648  -1.044   2.834  -1.528
    1  PEO  EO1  649   3.231   2.303   0.214
    1  PEO  EO2  650   3.444   2.376  -0.027
    1  PEO  EO3  651   3.657   2.450  -0.268
    1  PEO  EO4  652   3.871   2.523  -0.509
    1  PEO  EO5  653   4.084   2.597  -0.750
    1  PEO  EO6  654   4.297   2.670  -0.990
    1   PE   C1  655   1.138   0.671   0.204
    1   PE   C2  656   0.986   0.413  -0.159
    1   PE   C3  657   0.833   0.156  -0.521
    1   PE   C4  658   0.681  -0.101  -0.884
    1   PE   C5  659   0.529  -0.359  -1.247
    1   PE   C6  660   0.376  -0.616  -1.609
    1   PE   C1  661   1.374   3.232   0.214
    1   PE   C2  662   1.280   3.537  -0.131
    1   PE   C3  663   1.185   3.842  -0.476
    1   PE   C4  664   1.090   4.147  -0.821
    1   PE   C5  665   0.995   4.452  -1.166
    1   PE   C6  666   0.900   4.757  -1.510
    1   PE   C1  667   3.005   1.139   0.206
    1   PE   C2  668   3.270   0.989  -0.152
    1   PE   C3  669   3.535   0.838  -0.510
    1   PE   C4  670   3.800   0.688  -0.868
    1   PE   C5  671   4.064   0.537  -1.226
    1   PE   C6  672   4.329   0.387  -1.584
    1   PE   C1  673   0.443   1.374   0.211
    1   PE   C2  674   0.144   1.278  -0.139
    1   PE   C3  675  -0.155   1.181  -0.488
    1   PE   C4  676  -0.453   1.085  -0.838
    1   PE   C5  677  -0.752   0.989  -1.188
    1   PE   C6  678  -1.051   0.893  -1.537
    1  PEO  EO1  679   2.535   2.767  -0.018
    1  PEO  EO2  680   2.644   2.911  -0.295
    1  PEO  EO3  681   2.752   3.055  -0.571
    1  PEO  EO4  682   2.861   3.198  -0.848
    1  PEO  EO5  683   2.970   3.342  -1.124
    1  PEO  EO6  684   3.078   3.485  -1.401
    1  PEO  EO1  685   1.839   0.676  -0.021
    1  PEO  EO2  686   1.842   0.502  -0.302
    1  PEO  EO3  687   1.846   0.329  -0.582
    1  PEO  EO4  688   1.850   0.155  -0.862
    1  PEO  EO5  689   1.853  -0.019  -1.143
    1  PEO  EO6  690   1.857  -0.193  -1.423
    1  PEO  EO1  691   0.909   2.536  -0.020
    1  PEO  EO2  692   0.772   2.646  -0.299
    1  PEO  EO3  693   0.634   2.755  -0.578
    1  PEO  EO4  694   0.496   2.865  -0.858
    1  PEO  EO5  695   0.358   2.974  -1.137
    1  PEO  EO6  696   0.221   3.084  -1.416
    1   PE   C1  697   3.000   1.839  -0.019
    1   PE   C2  698   3.255   1.844  -0.413
    1   PE   C3  699   3.510   1.849  -0.808
    1   PE   C4  700   3.765   1.854  -1.203
    1   PE   C5  701   4.020   1.859  -1.598
    1   PE   C6  702   4.275   1.864  -1.993
    1  PEO  EO1  703   0.909   1.141  -0.022
    1  PEO  EO2  704   0.770   1.038  -0.303
    1  PEO  EO3  705   0.631   0.935  -0.584
    1  PEO  EO4  706   0.492   0.832  -0.865
    1  PEO  EO5  707   0.354   0.729  -1.146
    1  PEO  EO6  708   0.215   0.625  -1.427
    1   PE   C1  709   1.839   3.000  -0.019
    1   PE   C2  710   1.844   3.255  -0.413
    1   PE   C3  711   1.849   3.510  -0.808
    1   PE   C4  712   1.854   3.765  -1.203
    1   PE   C5  713   1.859   4.020  -1.598
    1   PE   C6  714   1.864   4.275  -1.993
    1   PE   C1  715   2.536   0.909  -0.020
    1   PE   C2  716   2.692   0.713  -0.418
    1   PE   C3  717   2.848   0.517  -0.815
    1   PE   C4  718   3.004   0.321  -1.213
    1   PE   C5  719   3.160   0.125  -1.610
    1   PE   C6  720   3.316  -0.072  -2.008
    1   PE   C1  721   0.904   2.073  -0.032
    1   PE   C2  722   0.697   2.131  -0.450
    1   PE   C3  723   0.491   2.190  -0.868
    1   PE   C4  724   0.284   2.248  -1.286
    1   PE   C5  725   0.078   2.306  -1.705
    1   PE   C6  726  -0.128   2.364  -2.123
    1   PE   C1  727   2.535   2.071  -0.249
    1   PE   C2  728   2.688   2.125  -0.689
    1   PE   C3  729   2.842   2.180  -1.130
    1   PE   C4  730   2.996   2.234  -1.571
    1   PE   C5  731   3.149   2.289  -2.012
    1   PE   C6  732   3.303   2.344  -2.453
    1  PEO  EO1  733   1.607   1.142  -0.251
    1  PEO  EO2  734   1.575   1.041  -0.563
    1  PEO  EO3  735   1.544   0.939  -0.875
    1  PEO  EO4  736   1.512   0.837  -1.188
    1  PEO  EO5  737   1.481   0.735  -1.500
    1  PEO  EO6  738   1.449   0.634  -1.813
    1  PEO  EO1  739   1.374   2.304  -0.253
    1  PEO  EO2  740   1.307   2.378  -0.567
    1  PEO  EO3  741   1.240   2.452  -0.881
    1  PEO  EO4  742   1.173   2.526  -1.196
    1  PEO  EO5  743   1.106   2.601  -1.510
    1  PEO  EO6  744   1.039   2.675  -1.825
    1   PE   C1  745   2.305   1.839  -0.258
    1   PE   C2  746   2.413   1.844  -0.715
    1   PE   C3  747   2.521   1.849  -1.173
    1   PE   C4  748   2.629   1.855  -1.630
    1   PE   C5  749   2.737   1.860  -2.087
    1   PE   C6  750   2.845   1.865  -2.545
    1   PE   C1  751   1.606   1.606  -0.262
    1   PE   C2  752   1.559   1.559  -0.728
    1   PE   C3  753   1.512   1.512  -1.193
    1   PE   C4  754   1.465   1.465  -1.658
    1   PE   C5  755   1.418   1.418  -2.123
    1   PE   C6  756   1.371   1.371  -2.589
    1  LAT   Au  757   1.224   1.020   0.204
    2  LAT   Au  758   1.428   0.816   0.204
    3  LAT   Au  759   1.632   1.020   0.204
    4  LAT   Au  760   1.836   0.816   0.204
    5  LAT   Au  761   2.040   1.020   0.204
    6  LAT   Au  762   2.244   0.816   0.204
    7  LAT   Au  763   2.448   1.020   0.204
    8  LAT   Au  764   0.816   1.428   0.204
    9  LAT   Au  765   1.020   1.224   0.204
   10  LAT   Au  766   1.428   1.428   0.000
   11  LAT   Au  767   1.224   1.428   0.204
   12  LAT   Au  768   1.428   1.224   0.204
   13  LAT   Au  769   1.632   1.224   0.000
   14  LAT   Au  770   1.836   1.428   0.000
   15  LAT   Au  771   1.632   1.428   0.204
   16  LAT   Au  772   1.836   1.224   0.204
   17  LAT   Au  773   2.040   1.224   0.000
   18  LAT   Au  774   2.244   1.428   0.000
   19  LAT   Au  775   2.040   1.428   0.204
   20  LAT   Au  776   2.244   1.224   0.204
   21  LAT   Au  777   2.448   1.428   0.204
   22  LAT   Au  778   2.652   1.224   0.204
   23  LAT   Au  779   2.856   1.428   0.204
   24  LAT   Au  780   0.816   1.836   0.204
   25  LAT   Au  781   1.020   1.632   0.204
   26  LAT   Au  782   1.224   1.632   0.000
   27  LAT   Au  783   1.428   1.836   0.000
   28  LAT   Au  784   1.224   1.836   0.204
   29  LAT   Au  785   1.428   1.632   0.204
   30  LAT   Au  786   1.632   1.632   0.000
   31  LAT   Au  787   1.836   1.836   0.000
   32  LAT   Au  788   1.632   1.836   0.204
   33  LAT   Au  789   1.836   1.632   0.204
   34  LAT   Au  790   2.040   1.632   0.000
   35  LAT   Au  791   2.244   1.836   0.000
   36  LAT   Au  792   2.040   1.836   0.204
   37  LAT   Au  793   2.244   1.632   0.204
   38  LAT   Au  794   2.448   1.632   0.000
   39  LAT   Au  795   2.448   1.836   0.204
   40  LAT   Au  796   2.652   1.632   0.204
   41  LAT   Au  797   2.856   1.836   0.204
   42  LAT   Au  798   0.816   2.244   0.204
   43  LAT   Au  799   1.020   2.040   0.204
   44  LAT   Au  800   1.224   2.040   0.000
   45  LAT   Au  801   1.428   2.244   0.000
   46  LAT   Au  802   1.224   2.244   0.204
   47  LAT   Au  803   1.428   2.040   0.204
   48  LAT   Au  804   1.632   2.040   0.000
   49  LAT   Au  805   1.836   2.244   0.000
   50  LAT   Au  806   1.632   2.244   0.204
   51  LAT   Au  807   1.836   2.040   0.204
   52  LAT   Au  808   2.040   2.040   0.000
   53  LAT   Au  809   2.244   2.244   0.000
   54  LAT   Au  810   2.040   2.244   0.204
   55  LAT   Au  811   2.244   2.040   0.204
   56  LAT   Au  812   2.448   2.040   0.000
   57  LAT   Au  813   2.448   2.244   0.204
   58  LAT   Au  814   2.652   2.040   0.204
   59  LAT   Au  815   2.856   2.244   0.204
   60  LAT   Au  816   1.020   2.448   0.204
   61  LAT   Au  817   1.224   2.652   0.204
   62  LAT   Au  818   1.428   2.448   0.204
   63  LAT   Au  819   1.632   2.448   0.000
   64  LAT   Au  820   1.632   2.652   0.204
   65  LAT   Au  821   1.836   2.448   0.204
   66  LAT   Au  822   2.040   2.448   0.000
   67  LAT   Au  823   2.040   2.652   0.204
   68  LAT   Au  824   2.244   2.448   0.204
   69  LAT   Au  825   2.448   2.652   0.204
   70  LAT   Au  826   2.652   2.448   0.204
   71  LAT   Au  827   1.428   2.856   0.204
   72  LAT   Au  828   1.836   2.856   0.204
   73  LAT   Au  829   2.244   2.856   0.204
   74  LAT   Au  830   1.428   0.612   0.408
   75  LAT   Au  831   1.224   0.612   0.612
   76  LAT   Au  832   1.428   0.408   0.612
   77  LAT   Au  833   1.836   0.612   0.408
   78  LAT   Au  834   1.632   0.612   0.612
   79  LAT   Au  835   1.836   0.408   0.612
   80  LAT   Au  836   2.244   0.612   0.408
   81  LAT   Au  837   2.040   0.612   0.612
   82  LAT   Au  838   2.244   0.408   0.612
   83  LAT   Au  839   2.448   0.612   0.612
   84  LAT   Au  840   1.020   1.020   0.408
   85  LAT   Au  841   0.816   1.020   0.612
   86  LAT   Au  842   1.020   0.816   0.612
   87  LAT   Au  843   1.224   0.816   0.408
   88  LAT   Au  844   1.428   1.020   0.408
   89  LAT   Au  845   1.224   1.020   0.612
   90  LAT   Au  846   1.428   0.816   0.612
   91  LAT   Au  847   1.632   0.816   0.408
   92  LAT   Au  848   1.836   1.020   0.408
   93  LAT   Au  849   1.632   1.020   0.612
   94  LAT   Au  850   1.836   0.816   0.612
   95  LAT   Au  851   2.040   0.816   0.408
   96  LAT   Au  852   2.244   1.020   0.408
   97  LAT   Au  853   2.040   1.020   0.612
   98  LAT   Au  854   2.244   0.816   0.612
   99  LAT   Au  855   2.448   0.816   0.408
  100  LAT   Au  856   2.652   1.020   0.408
  101  LAT   Au  857   2.448   1.020   0.612
  102  LAT   Au  858   2.652   0.816   0.612
  103  LAT   Au  859   2.856   1.020   0.612
  104  LAT   Au  860   0.612   1.428   0.408
  105  LAT   Au  861   0.408   1.428   0.612
  106  LAT   Au  862   0.612   1.224   0.612
  107  LAT   Au  863   0.816   1.224   0.408
  108  LAT   Au  864   1.020   1.428   0.408
  109  LAT   Au  865   0.816   1.428   0.612
  110  LAT   Au  866   1.020   1.224   0.612
  111  LAT   Au  867   1.224   1.224   0.408
  112  LAT   Au  868   1.428   1.428   0.408
  113  LAT   Au  869   1.224   1.428   0.612
  114  LAT   Au  870   1.428   1.224   0.612
  115  LAT   Au  871   1.632   1.224   0.408
  116  LAT   Au  872   1.836   1.428   0.408
  117  LAT   Au  873   1.632   1.428   0.612
  118  LAT   Au  874   1.836   1.224   0.612
  119  LAT   Au  875   2.040   1.224   0.408
  120  LAT   Au  876   2.244   1.428   0.408
  121  LAT   Au  877   2.040   1.428   0.612
  122  LAT   Au  878   2.244   1.224   0.612
  123  LAT   Au  879   2.448   1.224   0.408
  124  LAT   Au  880   2.652   1.428   0.408
  125  LAT   Au  881   2.448   1.428   0.612
  126  LAT   Au  882   2.652   1.224   0.612
  127  LAT   Au  883   2.856   1.224   0.408
  128  LAT   Au  884   3.060   1.428   0.408
  129  LAT   Au  885   2.856   1.428   0.612
  130  LAT   Au  886   3.060   1.224   0.612
  131  LAT   Au  887   3.264   1.428   0.612
  132  LAT   Au  888   0.612   1.836   0.408
  133  LAT   Au  889   0.408   1.836   0.612
  134  LAT   Au  890   0.612   1.632   0.612
  135  LAT   Au  891   0.816   1.632   0.408
  136  LAT   Au  892   1.020   1.836   0.408
  137  LAT   Au  893   0.816   1.836   0.612
  138  LAT   Au  894   1.020   1.632   0.612
  139  LAT   Au  895   1.224   1.632   0.408
  140  LAT   Au  896   1.428   1.836   0.408
  141  LAT   Au  897   1.224   1.836   0.612
  142  LAT   Au  898   1.428   1.632   0.612
  143  LAT   Au  899   1.632   1.632   0.408
  144  LAT   Au  900   1.836   1.836   0.408
  145  LAT   Au  901   1.632   1.836   0.612
  146  LAT   Au  902   1.836   1.632   0.612
  147  LAT   Au  903   2.040   1.632   0.408
  148  LAT   Au  904   2.244   1.836   0.408
  149  LAT   Au  905   2.040   1.836   0.612
  150  LAT   Au  906   2.244   1.632   0.612
  151  LAT   Au  907   2.448   1.632   0.408
  152  LAT   Au  908   2.652   1.836   0.408
  153  LAT   Au  909   2.448   1.836   0.612
  154  LAT   Au  910   2.652   1.632   0.612
  155  LAT   Au  911   2.856   1.632   0.408
  156  LAT   Au  912   3.060   1.836   0.408
  157  LAT   Au  913   2.856   1.836   0.612
  158  LAT   Au  914   3.060   1.632   0.612
  159  LAT   Au  915   3.264   1.836   0.612
  160  LAT   Au  916   0.612   2.244   0.408
  161  LAT   Au  917   0.408   2.244   0.612
  162  LAT   Au  918   0.612   2.040   0.612
  163  LAT   Au  919   0.816   2.040   0.408
  164  LAT   Au  920   1.020   2.244   0.408
  165  LAT   Au  921   0.816   2.244   0.612
  166  LAT   Au  922   1.020   2.040   0.612
  167  LAT   Au  923   1.224   2.040   0.408
  168  LAT   Au  924   1.428   2.244   0.408
  169  LAT   Au  925   1.224   2.244   0.612
  170  LAT   Au  926   1.428   2.040   0.612
  171  LAT   Au  927   1.632   2.040   0.408
  172  LAT   Au  928   1.836   2.244   0.408
  173  LAT   Au  929   1.632   2.244   0.612
  174  LAT   Au  930   1.836   2.040   0.612
  175  LAT   Au  931   2.040   2.040   0.408
  176  LAT   Au  932   2.244   2.244   0.408
  177  LAT   Au  933   2.040   2.244   0.612
  178  LAT   Au  934   2.244   2.040   0.612
  179  LAT   Au  935   2.448   2.040   0.408
  180  LAT   Au  936   2.652   2.244   0.408
  181  LAT   Au  937   2.448   2.244   0.612
  182  LAT   Au  938   2.652   2.040   0.612
  183  LAT   Au  939   2.856   2.040   0.408
  184  LAT   Au  940   3.060   2.244   0.408
  185  LAT   Au  941   2.856   2.244   0.612
  186  LAT   Au  942   3.060   2.040   0.612
  187  LAT   Au  943   3.264   2.244   0.612
  188  LAT   Au  944   0.612   2.448   0.612
  189  LAT   Au  945   0.816   2.448   0.408
  190  LAT   Au  946   1.020   2.652   0.408
  191  LAT   Au  947   0.816   2.652   0.612
  192  LAT   Au  948   1.020   2.448   0.612
  193  LAT   Au  949   1.224   2.448   0.408
  194  LAT   Au  950   1.428   2.652   0.408
  195  LAT   Au  951   1.224   2.652   0.612
  196  LAT   Au  952   1.428   2.448   0.612
  197  LAT   Au  953   1.632   2.448   0.408
  198  LAT   Au  954   1.836   2.652   0.408
  199  LAT   Au  955   1.632   2.652   0.612
  200  LAT   Au  956   1.836   2.448   0.612
  201  LAT   Au  957   2.040   2.448   0.408
  202  LAT   Au  958   2.244   2.652   0.408
  203  LAT   Au  959   2.040   2.652   0.612
  204  LAT   Au  960   2.244   2.448   0.612
  205  LAT   Au  961   2.448   2.448   0.408
  206  LAT   Au  962   2.652   2.652   0.408
  207  LAT   Au  963   2.448   2.652   0.612
  208  LAT   Au  964   2.652   2.448   0.612
  209  LAT   Au  965   2.856   2.448   0.408
  210  LAT   Au  966   2.856   2.652   0.612
  211  LAT   Au  967   3.060   2.448   0.612
  212  LAT   Au  968   1.020   2.856   0.612
  213  LAT   Au  969   1.224   2.856   0.408
  214  LAT   Au  970   1.428   3.060   0.408
  215  LAT   Au  971   1.224   3.060   0.612
  216  LAT   Au  972   1.428   2.856   0.612
  217  LAT   Au  973   1.632   2.856   0.408
  218  LAT   Au  974   1.836   3.060   0.408
  219  LAT   Au  975   1.632   3.060   0.612
  220  LAT   Au  976   1.836   2.856   0.612
  221  LAT   Au  977   2.040   2.856   0.408
  222  LAT   Au  978   2.244   3.060   0.408
  223  LAT   Au  979   2.040   3.060   0.612
  224  LAT   Au  980   2.244   2.856   0.612
  225  LAT   Au  981   2.448   2.856   0.408
  226  LAT   Au  982   2.448   3.060   0.612
  227  LAT   Au  983   2.652   2.856   0.612
  228  LAT   Au  984   1.428   3.264   0.612
  229  LAT   Au  985   1.836   3.264   0.612
  230  LAT   Au  986   2.244   3.264   0.612
  231  LAT   Au  987   1.428   0.204   0.816
  232  LAT   Au  988   1.224   0.204   1.020
  233  LAT   Au  989   1.836   0.204   0.816
  234  LAT   Au  990   1.632   0.204   1.020
  235  LAT   Au  991   2.244   0.204   0.816
  236  LAT   Au  992   2.040   0.204   1.020
  237  LAT   Au  993   2.448   0.204   1.020
  238  LAT   Au  994   1.020   0.612   0.816
  239  LAT   Au  995   0.816   0.612   1.020
  240  LAT   Au  996   1.020   0.408   1.020
  241  LAT   Au  997   1.224   0.408   0.816
  242  LAT   Au  998   1.428   0.612   0.816
  243  LAT   Au  999   1.224   0.612   1.020
  244  LAT   Au 1000   1.428   0.408   1.020
  245  LAT   Au 1001   1.632   0.408   0.816
  246  LAT   Au 1002   1.836   0.612   0.816
  247  LAT   Au 1003   1.632   0.612   1.020
  248  LAT   Au 1004   1.836   0.408   1.020
  249  LAT   Au 1005   2.040   0.408   0.816
  250  LAT   Au 1006   2.244   0.612   0.816
  251  LAT   Au 1007   2.040   0.612   1.020
  252  LAT   Au 1008   2.244   0.408   1.020
  253  LAT   Au 1009   2.448   0.408   0.816
  254  LAT   Au 1010   2.652   0.612   0.816
  255  LAT   Au 1011   2.448   0.612   1.020
  256  LAT   Au 1012   2.652   0.408   1.020
  257  LAT   Au 1013   2.856   0.612   1.020
  258  LAT   Au 1014   0.612   1.020   0.816
  259  LAT   Au 1015   0.408   1.020   1.020
  260  LAT   Au 1016   0.612   0.816   1.020
  261  LAT   Au 1017   0.816   0.816   0.816
  262  LAT   Au 1018   1.020   1.020   0.816
  263  LAT   Au 1019   0.816   1.020   1.020
  264  LAT   Au 1020   1.020   0.816   1.020
  265  LAT   Au 1021   1.224   0.816   0.816
  266  LAT   Au 1022   1.428   1.020   0.816
  267  LAT   Au 1023   1.224   1.020   1.020
  268  LAT   Au 1024   1.428   0.816   1.020
  269  LAT   Au 1025   1.632   0.816   0.816
  270  LAT   Au 1026   1.836   1.020   0.816
  271  LAT   Au 1027   1.632   1.020   1.020
  272  LAT   Au 1028   1.836   0.816   1.020
  273  LAT   Au 1029   2.040   0.816   0.816
  274  LAT   Au 1030   2.244   1.020   0.816
  275  LAT   Au 1031   2.040   1.020   1.020
  276  LAT   Au 1032   2.244   0.816   1.020
  277  LAT   Au 1033   2.448   0.816   0.816
  278  LAT   Au 1034   2.652   1.020   0.816
  279  LAT   Au 1035   2.448   1.020   1.020
  280  LAT   Au 1036   2.652   0.816   1.020
  281  LAT   Au 1037   2.856   0.816   0.816
  282  LAT   Au 1038   3.060   1.020   0.816
  283  LAT   Au 1039   2.856   1.020   1.020
  284  LAT   Au 1040   3.060   0.816   1.020
  285  LAT   Au 1041   3.264   1.020   1.020
  286  LAT   Au 1042   0.204   1.428   0.816
  287  LAT   Au 1043   0.204   1.224   1.020
  288  LAT   Au 1044   0.408   1.224   0.816
  289  LAT   Au 1045   0.612   1.428   0.816
  290  LAT   Au 1046   0.408   1.428   1.020
  291  LAT   Au 1047   0.612   1.224   1.020
  292  LAT   Au 1048   0.816   1.224   0.816
  293  LAT   Au 1049   1.020   1.428   0.816
  294  LAT   Au 1050   0.816   1.428   1.020
  295  LAT   Au 1051   1.020   1.224   1.020
  296  LAT   Au 1052   1.224   1.224   0.816
  297  LAT   Au 1053   1.428   1.428   0.816
  298  LAT   Au 1054   1.224   1.428   1.020
  299  LAT   Au 1055   1.428   1.224   1.020
  300  LAT   Au 1056   1.632   1.224   0.816
  301  LAT   Au 1057   1.836   1.428   0.816
  302  LAT   Au 1058   1.632   1.428   1.020
  303  LAT   Au 1059   1.836   1.224   1.020
  304  LAT   Au 1060   2.040   1.224   0.816
  305  LAT   Au 1061   2.244   1.428   0.816
  306  LAT   Au 1062   2.040   1.428   1.020
  307  LAT   Au 1063   2.244   1.224   1.020
  308  LAT   Au 1064   2.448   1.224   0.816
  309  LAT   Au 1065   2.652   1.428   0.816
  310  LAT   Au 1066   2.448   1.428   1.020
  311  LAT   Au 1067   2.652   1.224   1.020
  312  LAT   Au 1068   2.856   1.224   0.816
  313  LAT   Au 1069   3.060   1.428   0.816
  314  LAT   Au 1070   2.856   1.428   1.020
  315  LAT   Au 1071   3.060   1.224   1.020
  316  LAT   Au 1072   3.264   1.224   0.816
  317  LAT   Au 1073   3.468   1.428   0.816
  318  LAT   Au 1074   3.264   1.428   1.020
  319  LAT   Au 1075   3.468   1.224   1.020
  320  LAT   Au 1076   0.204   1.836   0.816
  321  LAT   Au 1077   0.204   1.632   1.020
  322  LAT   Au 1078   0.408   1.632   0.816
  323  LAT   Au 1079   0.612   1.836   0.816
  324  LAT   Au 1080   0.408   1.836   1.020
  325  LAT   Au 1081   0.612   1.632   1.020
  326  LAT   Au 1082   0.816   1.632   0.816
  327  LAT   Au 1083   1.020   1.836   0.816
  328  LAT   Au 1084   0.816   1.836   1.020
  329  LAT   Au 1085   1.020   1.632   1.020
  330  LAT   Au 1086   1.224   1.632   0.816
  331  LAT   Au 1087   1.428   1.836   0.816
  332  LAT   Au 1088   1.224   1.836   1.020
  333  LAT   Au 1089   1.428   1.632   1.020
  334  LAT   Au 1090   1.632   1.632   0.816
  335  LAT   Au 1091   1.836   1.836   0.816
  336  LAT   Au 1092   1.632   1.836   1.020
  337  LAT   Au 1093   1.836   1.632   1.020
  338  LAT   Au 1094   2.040   1.632   0.816
  339  LAT   Au 1095   2.244   1.836   0.816
  340  LAT   Au 1096   2.040   1.836   1.020
  341  LAT   Au 1097   2.244   1.632   1.020
  342  LAT   Au 1098   2.448   1.632   0.816
  343  LAT   Au 1099   2.652   1.836   0.816
  344  LAT   Au 1100   2.448   1.836   1.020
  345  LAT   Au 1101   2.652   1.632   1.020
  346  LAT   Au 1102   2.856   1.632   0.816
  347  LAT   Au 1103   3.060   1.836   0.816
  348  LAT   Au 1104   2.856   1.836   1.020
  349  LAT   Au 1105   3.060   1.632   1.020
  350  LAT   Au 1106   3.264   1.632   0.816
  351  LAT   Au 1107   3.468   1.836   0.816
  352  LAT   Au 1108   3.264   1.836   1.020
  353  LAT   Au 1109   3.468   1.632   1.020
  354  LAT   Au 1110   0.204   2.244   0.816
  355  LAT   Au 1111   0.204   2.040   1.020
  356  LAT   Au 1112   0.408   2.040   0.816
  357  LAT   Au 1113   0.612   2.244   0.816
  358  LAT   Au 1114   0.408   2.244   1.020
  359  LAT   Au 1115   0.612   2.040   1.020
  360  LAT   Au 1116   0.816   2.040   0.816
  361  LAT   Au 1117   1.020   2.244   0.816
  362  LAT   Au 1118   0.816   2.244   1.020
  363  LAT   Au 1119   1.020   2.040   1.020
  364  LAT   Au 1120   1.224   2.040   0.816
  365  LAT   Au 1121   1.428   2.244   0.816
  366  LAT   Au 1122   1.224   2.244   1.020
  367  LAT   Au 1123   1.428   2.040   1.020
  368  LAT   Au 1124   1.632   2.040   0.816
  369  LAT   Au 1125   1.836   2.244   0.816
  370  LAT   Au 1126   1.632   2.244   1.020
  371  LAT   Au 1127   1.836   2.040   1.020
  372  LAT   Au 1128   2.040   2.040   0.816
  373  LAT   Au 1129   2.244   2.244   0.816
  374  LAT   Au 1130   2.040   2.244   1.020
  375  LAT   Au 1131   2.244   2.040   1.020
  376  LAT   Au 1132   2.448   2.040   0.816
  377  LAT   Au 1133   2.652   2.244   0.816
  378  LAT   Au 1134   2.448   2.244   1.020
  379  LAT   Au 1135   2.652   2.040   1.020
  380  LAT   Au 1136   2.856   2.040   0.816
  381  LAT   Au 1137   3.060   2.244   0.816
  382  LAT   Au 1138   2.856   2.244   1.020
  383  LAT   Au 1139   3.060   2.040   1.020
  384  LAT   Au 1140   3.264   2.040   0.816
  385  LAT   Au 1141   3.468   2.244   0.816
  386  LAT   Au 1142   3.264   2.244   1.020
  387  LAT   Au 1143   3.468   2.040   1.020
  388  LAT   Au 1144   0.204   2.448   1.020
  389  LAT   Au 1145   0.408   2.448   0.816
  390  LAT   Au 1146   0.612   2.652   0.816
  391  LAT   Au 1147   0.408   2.652   1.020
  392  LAT   Au 1148   0.612   2.448   1.020
  393  LAT   Au 1149   0.816   2.448   0.816
  394  LAT   Au 1150   1.020   2.652   0.816
  395  LAT   Au 1151   0.816   2.652   1.020
  396  LAT   Au 1152   1.020   2.448   1.020
  397  LAT   Au 1153   1.224   2.448   0.816
  398  LAT   Au 1154   1.428   2.652   0.816
  399  LAT   Au 1155   1.224   2.652   1.020
  400  LAT   Au 1156   1.428   2.448   1.020
  401  LAT   Au 1157   1.632   2.448   0.816
  402  LAT   Au 1158   1.836   2.652   0.816
  403  LAT   Au 1159   1.632   2.652   1.020
  404  LAT   Au 1160   1.836   2.448   1.020
  405  LAT   Au 1161   2.040   2.448   0.816
  406  LAT   Au 1162   2.244   2.652   0.816
  407  LAT   Au 1163   2.040   2.652   1.020
  408  LAT   Au 1164   2.244   2.448   1.020
  409  LAT   Au 1165   2.448   2.448   0.816
  410  LAT   Au 1166   2.652   2.652   0.816
  411  LAT   Au 1167   2.448   2.652   1.020
  412  LAT   Au 1168   2.652   2.448   1.020
  413  LAT   Au 1169   2.856   2.448   0.816
  414  LAT   Au 1170   3.060   2.652   0.816
  415  LAT   Au 1171   2.856   2.652   1.020
  416  LAT   Au 1172   3.060   2.448   1.020
  417  LAT   Au 1173   3.264   2.448   0.816
  418  LAT   Au 1174   3.264   2.652   1.020
  419  LAT   Au 1175   3.468   2.448   1.020
  420  LAT   Au 1176   0.612   2.856   1.020
  421  LAT   Au 1177   0.816   2.856   0.816
  422  LAT   Au 1178   1.020   3.060   0.816
  423  LAT   Au 1179   0.816   3.060   1.020
  424  LAT   Au 1180   1.020   2.856   1.020
  425  LAT   Au 1181   1.224   2.856   0.816
  426  LAT   Au 1182   1.428   3.060   0.816
  427  LAT   Au 1183   1.224   3.060   1.020
  428  LAT   Au 1184   1.428   2.856   1.020
  429  LAT   Au 1185   1.632   2.856   0.816
  430  LAT   Au 1186   1.836   3.060   0.816
  431  LAT   Au 1187   1.632   3.060   1.020
  432  LAT   Au 1188   1.836   2.856   1.020
  433  LAT   Au 1189   2.040   2.856   0.816
  434  LAT   Au 1190   2.244   3.060   0.816
  435  LAT   Au 1191   2.040   3.060   1.020
  436  LAT   Au 1192   2.244   2.856   1.020
  437  LAT   Au 1193   2.448   2.856   0.816
  438  LAT   Au 1194   2.652   3.060   0.816
  439  LAT   Au 1195   2.448   3.060   1.020
  440  LAT   Au 1196   2.652   2.856   1.020
  441  LAT   Au 1197   2.856   2.856   0.816
  442  LAT   Au 1198   2.856   3.060   1.020
  443  LAT   Au 1199   3.060   2.856   1.020
  444  LAT   Au 1200   1.020   3.264   1.020
  445  LAT   Au 1201   1.224   3.264   0.816
  446  LAT   Au 1202   1.428   3.468   0.816
  447  LAT   Au 1203   1.224   3.468   1.020
  448  LAT   Au 1204   1.428   3.264   1.020
  449  LAT   Au 1205   1.632   3.264   0.816
  450  LAT   Au 1206   1.836   3.468   0.816
  451  LAT   Au 1207   1.632   3.468   1.020
  452  LAT   Au 1208   1.836   3.264   1.020
  453  LAT   Au 1209   2.040   3.264   0.816
  454  LAT   Au 1210   2.244   3.468   0.816
  455  LAT   Au 1211   2.040   3.468   1.020
  456  LAT   Au 1212   2.244   3.264   1.020
  457  LAT   Au 1213   2.448   3.264   0.816
  458  LAT   Au 1214   2.448   3.468   1.020
  459  LAT   Au 1215   2.652   3.264   1.020
  460  LAT   Au 1216   1.020   0.204   1.224
  461  LAT   Au 1217   0.816   0.204   1.428
  462  LAT   Au 1218   1.428   0.204   1.224
  463  LAT   Au 1219   1.224   0.204   1.428
  464  LAT   Au 1220   1.428   0.000   1.428
  465  LAT   Au 1221   1.632   0.000   1.224
  466  LAT   Au 1222   1.836   0.204   1.224
  467  LAT   Au 1223   1.632   0.204   1.428
  468  LAT   Au 1224   1.836   0.000   1.428
  469  LAT   Au 1225   2.040   0.000   1.224
  470  LAT   Au 1226   2.244   0.204   1.224
  471  LAT   Au 1227   2.040   0.204   1.428
  472  LAT   Au 1228   2.244   0.000   1.428
  473  LAT   Au 1229   2.652   0.204   1.224
  474  LAT   Au 1230   2.448   0.204   1.428
  475  LAT   Au 1231   2.856   0.204   1.428
  476  LAT   Au 1232   0.612   0.612   1.224
  477  LAT   Au 1233   0.408   0.612   1.428
  478  LAT   Au 1234   0.612   0.408   1.428
  479  LAT   Au 1235   0.816   0.408   1.224
  480  LAT   Au 1236   1.020   0.612   1.224
  481  LAT   Au 1237   0.816   0.612   1.428
  482  LAT   Au 1238   1.020   0.408   1.428
  483  LAT   Au 1239   1.224   0.408   1.224
  484  LAT   Au 1240   1.428   0.612   1.224
  485  LAT   Au 1241   1.224   0.612   1.428
  486  LAT   Au 1242   1.428   0.408   1.428
  487  LAT   Au 1243   1.632   0.408   1.224
  488  LAT   Au 1244   1.836   0.612   1.224
  489  LAT   Au 1245   1.632   0.612   1.428
  490  LAT   Au 1246   1.836   0.408   1.428
  491  LAT   Au 1247   2.040   0.408   1.224
  492  LAT   Au 1248   2.244   0.612   1.224
  493  LAT   Au 1249   2.040   0.612   1.428
  494  LAT   Au 1250   2.244   0.408   1.428
  495  LAT   Au 1251   2.448   0.408   1.224
  496  LAT   Au 1252   2.652   0.612   1.224
  497  LAT   Au 1253   2.448   0.612   1.428
  498  LAT   Au 1254   2.652   0.408   1.428
  499  LAT   Au 1255   2.856   0.408   1.224
  500  LAT   Au 1256   3.060   0.612   1.224
  501  LAT   Au 1257   2.856   0.612   1.428
  502  LAT   Au 1258   3.060   0.408   1.428
  503  LAT   Au 1259   3.264   0.612   1.428
  504  LAT   Au 1260   0.204   1.020   1.224
  505  LAT   Au 1261   0.204   0.816   1.428
  506  LAT   Au 1262   0.408   0.816   1.224
  507  LAT   Au 1263   0.612   1.020   1.224
  508  LAT   Au 1264   0.408   1.020   1.428
  509  LAT   Au 1265   0.612   0.816   1.428
  510  LAT   Au 1266   0.816   0.816   1.224
  511  LAT   Au 1267   1.020   1.020   1.224
  512  LAT   Au 1268   0.816   1.020   1.428
  513  LAT   Au 1269   1.020   0.816   1.428
  514  LAT   Au 1270   1.224   0.816   1.224
  515  LAT   Au 1271   1.428   1.020   1.224
  516  LAT   Au 1272   1.224   1.020   1.428
  517  LAT   Au 1273   1.428   0.816   1.428
  518  LAT   Au 1274   1.632   0.816   1.224
  519  LAT   Au 1275   1.836   1.020   1.224
  520  LAT   Au 1276   1.632   1.020   1.428
  521  LAT   Au 1277   1.836   0.816   1.428
  522  LAT   Au 1278   2.040   0.816   1.224
  523  LAT   Au 1279   2.244   1.020   1.224
  524  LAT   Au 1280   2.040   1.020   1.428
  525  LAT   Au 1281   2.244   0.816   1.428
  526  LAT   Au 1282   2.448   0.816   1.224
  527  LAT   Au 1283   2.652   1.020   1.224
  528  LAT   Au 1284   2.448   1.020   1.428
  529  LAT   Au 1285   2.652   0.816   1.428
  530  LAT   Au 1286   2.856   0.816   1.224
  531  LAT   Au 1287   3.060   1.020   1.224
  532  LAT   Au 1288   2.856   1.020   1.428
  533  LAT   Au 1289   3.060   0.816   1.428
  534  LAT   Au 1290   3.264   0.816   1.224
  535  LAT   Au 1291   3.468   1.020   1.224
  536  LAT   Au 1292   3.264   1.020   1.428
  537  LAT   Au 1293   3.468   0.816   1.428
  538  LAT   Au 1294   0.204   1.428   1.224
  539  LAT   Au 1295   0.000   1.428   1.428
  540  LAT   Au 1296   0.204   1.224   1.428
  541  LAT   Au 1297   0.408   1.224   1.224
  542  LAT   Au 1298   0.612   1.428   1.224
  543  LAT   Au 1299   0.408   1.428   1.428
  544  LAT   Au 1300   0.612   1.224   1.428
  545  LAT   Au 1301   0.816   1.224   1.224
  546  LAT   Au 1302   1.020   1.428   1.224
  547  LAT   Au 1303   0.816   1.428   1.428
  548  LAT   Au 1304   1.020   1.224   1.428
  549  LAT   Au 1305   1.224   1.224   1.224
  550  LAT   Au 1306   1.428   1.428   1.224
  551  LAT   Au 1307   1.224   1.428   1.428
  552  LAT   Au 1308   1.428   1.224   1.428
  553  LAT   Au 1309   1.632   1.224   1.224
  554  LAT   Au 1310   1.836   1.428   1.224
  555  LAT   Au 1311   1.632   1.428   1.428
  556  LAT   Au 1312   1.836   1.224   1.428
  557  LAT   Au 1313   2.040   1.224   1.224
  558  LAT   Au 1314   2.244   1.428   1.224
  559  LAT   Au 1315   2.040   1.428   1.428
  560  LAT   Au 1316   2.244   1.224   1.428
  561  LAT   Au 1317   2.448   1.224   1.224
  562  LAT   Au 1318   2.652   1.428   1.224
  563  LAT   Au 1319   2.448   1.428   1.428
  564  LAT   Au 1320   2.652   1.224   1.428
  565  LAT   Au 1321   2.856   1.224   1.224
  566  LAT   Au 1322   3.060   1.428   1.224
  567  LAT   Au 1323   2.856   1.428   1.428
  568  LAT   Au 1324   3.060   1.224   1.428
  569  LAT   Au 1325   3.264   1.224   1.224
  570  LAT   Au 1326   3.468   1.428   1.224
  571  LAT   Au 1327   3.264   1.428   1.428
  572  LAT   Au 1328   3.468   1.224   1.428
  573  LAT   Au 1329   0.000   1.632   1.224
  574  LAT   Au 1330   0.204   1.836   1.224
  575  LAT   Au 1331   0.000   1.836   1.428
  576  LAT   Au 1332   0.204   1.632   1.428
  577  LAT   Au 1333   0.408   1.632   1.224
  578  LAT   Au 1334   0.612   1.836   1.224
  579  LAT   Au 1335   0.408   1.836   1.428
  580  LAT   Au 1336   0.612   1.632   1.428
  581  LAT   Au 1337   0.816   1.632   1.224
  582  LAT   Au 1338   1.020   1.836   1.224
  583  LAT   Au 1339   0.816   1.836   1.428
  584  LAT   Au 1340   1.020   1.632   1.428
  585  LAT   Au 1341   1.224   1.632   1.224
  586  LAT   Au 1342   1.428   1.836   1.224
  587  LAT   Au 1343   1.224   1.836   1.428
  588  LAT   Au 1344   1.428   1.632   1.428
  589  LAT   Au 1345   1.632   1.632   1.224
  590  LAT   Au 1346   1.836   1.836   1.224
  591  LAT   Au 1347   1.632   1.836   1.428
  592  LAT   Au 1348   1.836   1.632   1.428
  593  LAT   Au 1349   2.040   1.632   1.224
  594  LAT   Au 1350   2.244   1.836   1.224
  595  LAT   Au 1351   2.040   1.836   1.428
  596  LAT   Au 1352   2.244   1.632   1.428
  597  LAT   Au 1353   2.448   1.632   1.224
  598  LAT   Au 1354   2.652   1.836   1.224
  599  LAT   Au 1355   2.448   1.836   1.428
  600  LAT   Au 1356   2.652   1.632   1.428
  601  LAT   Au 1357   2.856   1.632   1.224
  602  LAT   Au 1358   3.060   1.836   1.224
  603  LAT   Au 1359   2.856   1.836   1.428
  604  LAT   Au 1360   3.060   1.632   1.428
  605  LAT   Au 1361   3.264   1.632   1.224
  606  LAT   Au 1362   3.468   1.836   1.224
  607  LAT   Au 1363   3.264   1.836   1.428
  608  LAT   Au 1364   3.468   1.632   1.428
  609  LAT   Au 1365   0.000   2.040   1.224
  610  LAT   Au 1366   0.204   2.244   1.224
  611  LAT   Au 1367   0.000   2.244   1.428
  612  LAT   Au 1368   0.204   2.040   1.428
  613  LAT   Au 1369   0.408   2.040   1.224
  614  LAT   Au 1370   0.612   2.244   1.224
  615  LAT   Au 1371   0.408   2.244   1.428
  616  LAT   Au 1372   0.612   2.040   1.428
  617  LAT   Au 1373   0.816   2.040   1.224
  618  LAT   Au 1374   1.020   2.244   1.224
  619  LAT   Au 1375   0.816   2.244   1.428
  620  LAT   Au 1376   1.020   2.040   1.428
  621  LAT   Au 1377   1.224   2.040   1.224
  622  LAT   Au 1378   1.428   2.244   1.224
  623  LAT   Au 1379   1.224   2.244   1.428
  624  LAT   Au 1380   1.428   2.040   1.428
  625  LAT   Au 1381   1.632   2.040   1.224
  626  LAT   Au 1382   1.836   2.244   1.224
  627  LAT   Au 1383   1.632   2.244   1.428
  628  LAT   Au 1384   1.836   2.040   1.428
  629  LAT   Au 1385   2.040   2.040   1.224
  630  LAT   Au 1386   2.244   2.244   1.224
  631  LAT   Au 1387   2.040   2.244   1.428
  632  LAT   Au 1388   2.244   2.040   1.428
  633  LAT   Au 1389   2.448   2.040   1.224
  634  LAT   Au 1390   2.652   2.244   1.224
  635  LAT   Au 1391   2.448   2.244   1.428
  636  LAT   Au 1392   2.652   2.040   1.428
  637  LAT   Au 1393   2.856   2.040   1.224
  638  LAT   Au 1394   3.060   2.244   1.224
  639  LAT   Au 1395   2.856   2.244   1.428
  640  LAT   Au 1396   3.060   2.040   1.428
  641  LAT   Au 1397   3.264   2.040   1.224
  642  LAT   Au 1398   3.468   2.244   1.224
  643  LAT   Au 1399   3.264   2.244   1.428
  644  LAT   Au 1400   3.468   2.040   1.428
  645  LAT   Au 1401   0.204   2.652   1.224
  646  LAT   Au 1402   0.204   2.448   1.428
  647  LAT   Au 1403   0.408   2.448   1.224
  648  LAT   Au 1404   0.612   2.652   1.224
  649  LAT   Au 1405   0.408   2.652   1.428
  650  LAT   Au 1406   0.612   2.448   1.428
  651  LAT   Au 1407   0.816   2.448   1.224
  652  LAT   Au 1408   1.020   2.652   1.224
  653  LAT   Au 1409   0.816   2.652   1.428
  654  LAT   Au 1410   1.020   2.448   1.428
  655  LAT   Au 1411   1.224   2.448   1.224
  656  LAT   Au 1412   1.428   2.652   1.224
  657  LAT   Au 1413   1.224   2.652   1.428
  658  LAT   Au 1414   1.428   2.448   1.428
  659  LAT   Au 1415   1.632   2.448   1.224
  660  LAT   Au 1416   1.836   2.652   1.224
  661  LAT   Au 1417   1.632   2.652   1.428
  662  LAT   Au 1418   1.836   2.448   1.428
  663  LAT   Au 1419   2.040   2.448   1.224
  664  LAT   Au 1420   2.244   2.652   1.224
  665  LAT   Au 1421   2.040   2.652   1.428
  666  LAT   Au 1422   2.244   2.448   1.428
  667  LAT   Au 1423   2.448   2.448   1.224
  668  LAT   Au 1424   2.652   2.652   1.224
  669  LAT   Au 1425   2.448   2.652   1.428
  670  LAT   Au 1426   2.652   2.448   1.428
  671  LAT   Au 1427   2.856   2.448   1.224
  672  LAT   Au 1428   3.060   2.652   1.224
  673  LAT   Au 1429   2.856   2.652   1.428
  674  LAT   Au 1430   3.060   2.448   1.428
  675  LAT   Au 1431   3.264   2.448   1.224
  676  LAT   Au 1432   3.468   2.652   1.224
  677  LAT   Au 1433   3.264   2.652   1.428
  678  LAT   Au 1434   3.468   2.448   1.428
  679  LAT   Au 1435   0.204   2.856   1.428
  680  LAT   Au 1436   0.408   2.856   1.224
  681  LAT   Au 1437   0.612   3.060   1.224
  682  LAT   Au 1438   0.408   3.060   1.428
  683  LAT   Au 1439   0.612   2.856   1.428
  684  LAT   Au 1440   0.816   2.856   1.224
  685  LAT   Au 1441   1.020   3.060   1.224
  686  LAT   Au 1442   0.816   3.060   1.428
  687  LAT   Au 1443   1.020   2.856   1.428
  688  LAT   Au 1444   1.224   2.856   1.224
  689  LAT   Au 1445   1.428   3.060   1.224
  690  LAT   Au 1446   1.224   3.060   1.428
  691  LAT   Au 1447   1.428   2.856   1.428
  692  LAT   Au 1448   1.632   2.856   1.224
  693  LAT   Au 1449   1.836   3.060   1.224
  694  LAT   Au 1450   1.632   3.060   1.428
  695  LAT   Au 1451   1.836   2.856   1.428
  696  LAT   Au 1452   2.040   2.856   1.224
  697  LAT   Au 1453   2.244   3.060   1.224
  698  LAT   Au 1454   2.040   3.060   1.428
  699  LAT   Au 1455   2.244   2.856   1.428
  700  LAT   Au 1456   2.448   2.856   1.224
  701  LAT   Au 1457   2.652   3.060   1.224
  702  LAT   Au 1458   2.448   3.060   1.428
  703  LAT   Au 1459   2.652   2.856   1.428
  704  LAT   Au 1460   2.856   2.856   1.224
  705  LAT   Au 1461   3.060   3.060   1.224
  706  LAT   Au 1462   2.856   3.060   1.428
  707  LAT   Au 1463   3.060   2.856   1.428
  708  LAT   Au 1464   3.264   2.856   1.224
  709  LAT   Au 1465   3.264   3.060   1.428
  710  LAT   Au 1466   3.468   2.856   1.428
  711  LAT   Au 1467   0.612   3.264   1.428
  712  LAT   Au 1468   0.816   3.264   1.224
  713  LAT   Au 1469   1.020   3.468   1.224
  714  LAT   Au 1470   0.816   3.468   1.428
  715  LAT   Au 1471   1.020   3.264   1.428
  716  LAT   Au 1472   1.224   3.264   1.224
  717  LAT   Au 1473   1.428   3.468   1.224
  718  LAT   Au 1474   1.224   3.468   1.428
  719  LAT   Au 1475   1.428   3.264   1.428
  720  LAT   Au 1476   1.632   3.264   1.224
  721  LAT   Au 1477   1.836   3.468   1.224
  722  LAT   Au 1478   1.632   3.468   1.428
  723  LAT   Au 1479   1.836   3.264   1.428
  724  LAT   Au 1480   2.040   3.264   1.224
  725  LAT   Au 1481   2.244   3.468   1.224
  726  LAT   Au 1482   2.040   3.468   1.428
  727  LAT   Au 1483   2.244   3.264   1.428
  728  LAT   Au 1484   2.448   3.264   1.224
  729  LAT   Au 1485   2.652   3.468   1.224
  730  LAT   Au 1486   2.448   3.468   1.428
  731  LAT   Au 1487   2.652   3.264   1.428
  732  LAT   Au 1488   2.856   3.264   1.224
  733  LAT   Au 1489   2.856   3.468   1.428
  734  LAT   Au 1490   3.060   3.264   1.428
  735  LAT   Au 1491   1.020   0.204   1.632
  736  LAT   Au 1492   0.816   0.204   1.836
  737  LAT   Au 1493   1.224   0.000   1.632
  738  LAT   Au 1494   1.428   0.204   1.632
  739  LAT   Au 1495   1.224   0.204   1.836
  740  LAT   Au 1496   1.428   0.000   1.836
  741  LAT   Au 1497   1.632   0.000   1.632
  742  LAT   Au 1498   1.836   0.204   1.632
  743  LAT   Au 1499   1.632   0.204   1.836
  744  LAT   Au 1500   1.836   0.000   1.836
  745  LAT   Au 1501   2.040   0.000   1.632
  746  LAT   Au 1502   2.244   0.204   1.632
  747  LAT   Au 1503   2.040   0.204   1.836
  748  LAT   Au 1504   2.244   0.000   1.836
  749  LAT   Au 1505   2.448   0.000   1.632
  750  LAT   Au 1506   2.652   0.204   1.632
  751  LAT   Au 1507   2.448   0.204   1.836
  752  LAT   Au 1508   2.856   0.204   1.836
  753  LAT   Au 1509   0.612   0.612   1.632
  754  LAT   Au 1510   0.408   0.612   1.836
  755  LAT   Au 1511   0.612   0.408   1.836
  756  LAT   Au 1512   0.816   0.408   1.632
  757  LAT   Au 1513   1.020   0.612   1.632
  758  LAT   Au 1514   0.816   0.612   1.836
  759  LAT   Au 1515   1.020   0.408   1.836
  760  LAT   Au 1516   1.224   0.408   1.632
  761  LAT   Au 1517   1.428   0.612   1.632
  762  LAT   Au 1518   1.224   0.612   1.836
  763  LAT   Au 1519   1.428   0.408   1.836
  764  LAT   Au 1520   1.632   0.408   1.632
  765  LAT   Au 1521   1.836   0.612   1.632
  766  LAT   Au 1522   1.632   0.612   1.836
  767  LAT   Au 1523   1.836   0.408   1.836
  768  LAT   Au 1524   2.040   0.408   1.632
  769  LAT   Au 1525   2.244   0.612   1.632
  770  LAT   Au 1526   2.040   0.612   1.836
  771  LAT   Au 1527   2.244   0.408   1.836
  772  LAT   Au 1528   2.448   0.408   1.632
  773  LAT   Au 1529   2.652   0.612   1.632
  774  LAT   Au 1530   2.448   0.612   1.836
  775  LAT   Au 1531   2.652   0.408   1.836
  776  LAT   Au 1532   2.856   0.408   1.632
  777  LAT   Au 1533   3.060   0.612   1.632
  778  LAT   Au 1534   2.856   0.612   1.836
  779  LAT   Au 1535   3.060   0.408   1.836
  780  LAT   Au 1536   3.264   0.612   1.836
  781  LAT   Au 1537   0.204   1.020   1.632
  782  LAT   Au 1538   0.204   0.816   1.836
  783  LAT   Au 1539   0.408   0.816   1.632
  784  LAT   Au 1540   0.612   1.020   1.632
  785  LAT   Au 1541   0.408   1.020   1.836
  786  LAT   Au 1542   0.612   0.816   1.836
  787  LAT   Au 1543   0.816   0.816   1.632
  788  LAT   Au 1544   1.020   1.020   1.632
  789  LAT   Au 1545   0.816   1.020   1.836
  790  LAT   Au 1546   1.020   0.816   1.836
  791  LAT   Au 1547   1.224   0.816   1.632
  792  LAT   Au 1548   1.428   1.020   1.632
  793  LAT   Au 1549   1.224   1.020   1.836
  794  LAT   Au 1550   1.428   0.816   1.836
  795  LAT   Au 1551   1.632   0.816   1.632
  796  LAT   Au 1552   1.836   1.020   1.632
  797  LAT   Au 1553   1.632   1.020   1.836
  798  LAT   Au 1554   1.836   0.816   1.836
  799  LAT   Au 1555   2.040   0.816   1.632
  800  LAT   Au 1556   2.244   1.020   1.632
  801  LAT   Au 1557   2.040   1.020   1.836
  802  LAT   Au 1558   2.244   0.816   1.836
  803  LAT   Au 1559   2.448   0.816   1.632
  804  LAT   Au 1560   2.652   1.020   1.632
  805  LAT   Au 1561   2.448   1.020   1.836
  806  LAT   Au 1562   2.652   0.816   1.836
  807  LAT   Au 1563   2.856   0.816   1.632
  808  LAT   Au 1564   3.060   1.020   1.632
  809  LAT   Au 1565   2.856   1.020   1.836
  810  LAT   Au 1566   3.060   0.816   1.836
  811  LAT   Au 1567   3.264   0.816   1.632
  812  LAT   Au 1568   3.468   1.020   1.632
  813  LAT   Au 1569   3.264   1.020   1.836
  814  LAT   Au 1570   3.468   0.816   1.836
  815  LAT   Au 1571   0.000   1.224   1.632
  816  LAT   Au 1572   0.204   1.428   1.632
  817  LAT   Au 1573   0.000   1.428   1.836
  818  LAT   Au 1574   0.204   1.224   1.836
  819  LAT   Au 1575   0.408   1.224   1.632
  820  LAT   Au 1576   0.612   1.428   1.632
  821  LAT   Au 1577   0.408   1.428   1.836
  822  LAT   Au 1578   0.612   1.224   1.836
  823  LAT   Au 1579   0.816   1.224   1.632
  824  LAT   Au 1580   1.020   1.428   1.632
  825  LAT   Au 1581   0.816   1.428   1.836
  826  LAT   Au 1582   1.020   1.224   1.836
  827  LAT   Au 1583   1.224   1.224   1.632
  828  LAT   Au 1584   1.428   1.428   1.632
  829  LAT   Au 1585   1.224   1.428   1.836
  830  LAT   Au 1586   1.428   1.224   1.836
  831  LAT   Au 1587   1.632   1.224   1.632
  832  LAT   Au 1588   1.836   1.428   1.632
  833  LAT   Au 1589   1.632   1.428   1.836
  834  LAT   Au 1590   1.836   1.224   1.836
  835  LAT   Au 1591   2.040   1.224   1.632
  836  LAT   Au 1592   2.244   1.428   1.632
  837  LAT   Au 1593   2.040   1.428   1.836
  838  LAT   Au 1594   2.244   1.224   1.836
  839  LAT   Au 1595   2.448   1.224   1.632
  840  LAT   Au 1596   2.652   1.428   1.632
  841  LAT   Au 1597   2.448   1.428   1.836
  842  LAT   Au 1598   2.652   1.224   1.836
  843  LAT   Au 1599   2.856   1.224   1.632
  844  LAT   Au 1600   3.060   1.428   1.632
  845  LAT   Au 1601   2.856   1.428   1.836
  846  LAT   Au 1602   3.060   1.224   1.836
  847  LAT   Au 1603   3.264   1.224   1.632
  848  LAT   Au 1604   3.468   1.428   1.632
  849  LAT   Au 1605   3.264   1.428   1.836
  850  LAT   Au 1606   3.468   1.224   1.836
  851  LAT   Au 1607   0.000   1.632   1.632
  852  LAT   Au 1608   0.204   1.836   1.632
  853  LAT   Au 1609   0.000   1.836   1.836
  854  LAT   Au 1610   0.204   1.632   1.836
  855  LAT   Au 1611   0.408   1.632   1.632
  856  LAT   Au 1612   0.612   1.836   1.632
  857  LAT   Au 1613   0.408   1.836   1.836
  858  LAT   Au 1614   0.612   1.632   1.836
  859  LAT   Au 1615   0.816   1.632   1.632
  860  LAT   Au 1616   1.020   1.836   1.632
  861  LAT   Au 1617   0.816   1.836   1.836
  862  LAT   Au 1618   1.020   1.632   1.836
  863  LAT   Au 1619   1.224   1.632   1.632
  864  LAT   Au 1620   1.428   1.836   1.632
  865  LAT   Au 1621   1.224   1.836   1.836
  866  LAT   Au 1622   1.428   1.632   1.836
  867  LAT   Au 1623   1.632   1.632   1.632
  868  LAT   Au 1624   1.836   1.836   1.632
  869  LAT   Au 1625   1.632   1.836   1.836
  870  LAT   Au 1626   1.836   1.632   1.836
  871  LAT   Au 1627   2.040   1.632   1.632
  872  LAT   Au 1628   2.244   1.836   1.632
  873  LAT   Au 1629   2.040   1.836   1.836
  874  LAT   Au 1630   2.244   1.632   1.836
  875  LAT   Au 1631   2.448   1.632   1.632
  876  LAT   Au 1632   2.652   1.836   1.632
  877  LAT   Au 1633   2.448   1.836   1.836
  878  LAT   Au 1634   2.652   1.632   1.836
  879  LAT   Au 1635   2.856   1.632   1.632
  880  LAT   Au 1636   3.060   1.836   1.632
  881  LAT   Au 1637   2.856   1.836   1.836
  882  LAT   Au 1638   3.060   1.632   1.836
  883  LAT   Au 1639   3.264   1.632   1.632
  884  LAT   Au 1640   3.468   1.836   1.632
  885  LAT   Au 1641   3.264   1.836   1.836
  886  LAT   Au 1642   3.468   1.632   1.836
  887  LAT   Au 1643   0.000   2.040   1.632
  888  LAT   Au 1644   0.204   2.244   1.632
  889  LAT   Au 1645   0.000   2.244   1.836
  890  LAT   Au 1646   0.204   2.040   1.836
  891  LAT   Au 1647   0.408   2.040   1.632
  892  LAT   Au 1648   0.612   2.244   1.632
  893  LAT   Au 1649   0.408   2.244   1.836
  894  LAT   Au 1650   0.612   2.040   1.836
  895  LAT   Au 1651   0.816   2.040   1.632
  896  LAT   Au 1652   1.020   2.244   1.632
  897  LAT   Au 1653   0.816   2.244   1.836
  898  LAT   Au 1654   1.020   2.040   1.836
  899  LAT   Au 1655   1.224   2.040   1.632
  900  LAT   Au 1656   1.428   2.244   1.632
  901  LAT   Au 1657   1.224   2.244   1.836
  902  LAT   Au 1658   1.428   2.040   1.836
  903  LAT   Au 1659   1.632   2.040   1.632
  904  LAT   Au 1660   1.836   2.244   1.632
  905  LAT   Au 1661   1.632   2.244   1.836
  906  LAT   Au 1662   1.836   2.040   1.836
  907  LAT   Au 1663   2.040   2.040   1.632
  908  LAT   Au 1664   2.244   2.244   1.632
  909  LAT   Au 1665   2.040   2.244   1.836
  910  LAT   Au 1666   2.244   2.040   1.836
  911  LAT   Au 1667   2.448   2.040   1.632
  912  LAT   Au 1668   2.652   2.244   1.632
  913  LAT   Au 1669   2.448   2.244   1.836
  914  LAT   Au 1670   2.652   2.040   1.836
  915  LAT   Au 1671   2.856   2.040   1.632
  916  LAT   Au 1672   3.060   2.244   1.632
  917  LAT   Au 1673   2.856   2.244   1.836
  918  LAT   Au 1674   3.060   2.040   1.836
  919  LAT   Au 1675   3.264   2.040   1.632
  920  LAT   Au 1676   3.468   2.244   1.632
  921  LAT   Au 1677   3.264   2.244   1.836
  922  LAT   Au 1678   3.468   2.040   1.836
  923  LAT   Au 1679   0.000   2.448   1.632
  924  LAT   Au 1680   0.204   2.652   1.632
  925  LAT   Au 1681   0.204   2.448   1.836
  926  LAT   Au 1682   0.408   2.448   1.632
  927  LAT   Au 1683   0.612   2.652   1.632
  928  LAT   Au 1684   0.408   2.652   1.836
  929  LAT   Au 1685   0.612   2.448   1.836
  930  LAT   Au 1686   0.816   2.448   1.632
  931  LAT   Au 1687   1.020   2.652   1.632
  932  LAT   Au 1688   0.816   2.652   1.836
  933  LAT   Au 1689   1.020   2.448   1.836
  934  LAT   Au 1690   1.224   2.448   1.632
  935  LAT   Au 1691   1.428   2.652   1.632
  936  LAT   Au 1692   1.224   2.652   1.836
  937  LAT   Au 1693   1.428   2.448   1.836
  938  LAT   Au 1694   1.632   2.448   1.632
  939  LAT   Au 1695   1.836   2.652   1.632
  940  LAT   Au 1696   1.632   2.652   1.836
  941  LAT   Au 1697   1.836   2.448   1.836
  942  LAT   Au 1698   2.040   2.448   1.632
  943  LAT   Au 1699   2.244   2.652   1.632
  944  LAT   Au 1700   2.040   2.652   1.836
  945  LAT   Au 1701   2.244   2.448   1.836
  946  LAT   Au 1702   2.448   2.448   1.632
  947  LAT   Au 1703   2.652   2.652   1.632
  948  LAT   Au 1704   2.448   2.652   1.836
  949  LAT   Au 1705   2.652   2.448   1.836
  950  LAT   Au 1706   2.856   2.448   1.632
  951  LAT   Au 1707   3.060   2.652   1.632
  952  LAT   Au 1708   2.856   2.652   1.836
  953  LAT   Au 1709   3.060   2.448   1.836
  954  LAT   Au 1710   3.264   2.448   1.632
  955  LAT   Au 1711   3.468   2.652   1.632
  956  LAT   Au 1712   3.264   2.652   1.836
  957  LAT   Au 1713   3.468   2.448   1.836
  958  LAT   Au 1714   0.204   2.856   1.836
  959  LAT   Au 1715   0.408   2.856   1.632
  960  LAT   Au 1716   0.612   3.060   1.632
  961  LAT   Au 1717   0.408   3.060   1.836
  962  LAT   Au 1718   0.612   2.856   1.836
  963  LAT   Au 1719   0.816   2.856   1.632
  964  LAT   Au 1720   1.020   3.060   1.632
  965  LAT   Au 1721   0.816   3.060   1.836
  966  LAT   Au 1722   1.020   2.856   1.836
  967  LAT   Au 1723   1.224   2.856   1.632
  968  LAT   Au 1724   1.428   3.060   1.632
  969  LAT   Au 1725   1.224   3.060   1.836
  970  LAT   Au 1726   1.428   2.856   1.836
  971  LAT   Au 1727   1.632   2.856   1.632
  972  LAT   Au 1728   1.836   3.060   1.632
  973  LAT   Au 1729   1.632   3.060   1.836
  974  LAT   Au 1730   1.836   2.856   1.836
  975  LAT   Au 1731   2.040   2.856   1.632
  976  LAT   Au 1732   2.244   3.060   1.632
  977  LAT   Au 1733   2.040   3.060   1.836
  978  LAT   Au 1734   2.244   2.856   1.836
  979  LAT   Au 1735   2.448   2.856   1.632
  980  LAT   Au 1736   2.652   3.060   1.632
  981  LAT   Au 1737   2.448   3.060   1.836
  982  LAT   Au 1738   2.652   2.856   1.836
  983  LAT   Au 1739   2.856   2.856   1.632
  984  LAT   Au 1740   3.060   3.060   1.632
  985  LAT   Au 1741   2.856   3.060   1.836
  986  LAT   Au 1742   3.060   2.856   1.836
  987  LAT   Au 1743   3.264   2.856   1.632
  988  LAT   Au 1744   3.264   3.060   1.836
  989  LAT   Au 1745   3.468   2.856   1.836
  990  LAT   Au 1746   0.612   3.264   1.836
  991  LAT   Au 1747   0.816   3.264   1.632
  992  LAT   Au 1748   1.020   3.468   1.632
  993  LAT   Au 1749   0.816   3.468   1.836
  994  LAT   Au 1750   1.020   3.264   1.836
  995  LAT   Au 1751   1.224   3.264   1.632
  996  LAT   Au 1752   1.428   3.468   1.632
  997  LAT   Au 1753   1.224   3.468   1.836
  998  LAT   Au 1754   1.428   3.264   1.836
  999  LAT   Au 1755   1.632   3.264   1.632
 1000  LAT   Au 1756   1.836   3.468   1.632
 1001  LAT   Au 1757   1.632   3.468   1.836
 1002  LAT   Au 1758   1.836   3.264   1.836
 1003  LAT   Au 1759   2.040   3.264   1.632
 1004  LAT   Au 1760   2.244   3.468   1.632
 1005  LAT   Au 1761   2.040   3.468   1.836
 1006  LAT   Au 1762   2.244   3.264   1.836
 1007  LAT   Au 1763   2.448   3.264   1.632
 1008  LAT   Au 1764   2.652   3.468   1.632
 1009  LAT   Au 1765   2.448   3.468   1.836
 1010  LAT   Au 1766   2.652   3.264   1.836
 1011  LAT   Au 1767   2.856   3.264   1.632
 1012  LAT   Au 1768   2.856   3.468   1.836
 1013  LAT   Au 1769   3.060   3.264   1.836
 1014  LAT   Au 1770   1.020   0.204   2.040
 1015  LAT   Au 1771   0.816   0.204   2.244
 1016  LAT   Au 1772   1.224   0.000   2.040
 1017  LAT   Au 1773   1.428   0.204   2.040
 1018  LAT   Au 1774   1.224   0.204   2.244
 1019  LAT   Au 1775   1.428   0.000   2.244
 1020  LAT   Au 1776   1.632   0.000   2.040
 1021  LAT   Au 1777   1.836   0.204   2.040
 1022  LAT   Au 1778   1.632   0.204   2.244
 1023  LAT   Au 1779   1.836   0.000   2.244
 1024  LAT   Au 1780   2.040   0.000   2.040
 1025  LAT   Au 1781   2.244   0.204   2.040
 1026  LAT   Au 1782   2.040   0.204   2.244
 1027  LAT   Au 1783   2.244   0.000   2.244
 1028  LAT   Au 1784   2.448   0.000   2.040
 1029  LAT   Au 1785   2.652   0.204   2.040
 1030  LAT   Au 1786   2.448   0.204   2.244
 1031  LAT   Au 1787   2.856   0.204   2.244
 1032  LAT   Au 1788   0.612   0.612   2.040
 1033  LAT   Au 1789   0.408   0.612   2.244
 1034  LAT   Au 1790   0.612   0.408   2.244
 1035  LAT   Au 1791   0.816   0.408   2.040
 1036  LAT   Au 1792   1.020   0.612   2.040
 1037  LAT   Au 1793   0.816   0.612   2.244
 1038  LAT   Au 1794   1.020   0.408   2.244
 1039  LAT   Au 1795   1.224   0.408   2.040
 1040  LAT   Au 1796   1.428   0.612   2.040
 1041  LAT   Au 1797   1.224   0.612   2.244
 1042  LAT   Au 1798   1.428   0.408   2.244
 1043  LAT   Au 1799   1.632   0.408   2.040
 1044  LAT   Au 1800   1.836   0.612   2.040
 1045  LAT   Au 1801   1.632   0.612   2.244
 1046  LAT   Au 1802   1.836   0.408   2.244
 1047  LAT   Au 1803   2.040   0.408   2.040
 1048  LAT   Au 1804   2.244   0.612   2.040
 1049  LAT   Au 1805   2.040   0.612   2.244
 1050  LAT   Au 1806   2.244   0.408   2.244
 1051  LAT   Au 1807   2.448   0.408   2.040
 1052  LAT   Au 1808   2.652   0.612   2.040
 1053  LAT   Au 1809   2.448   0.612   2.244
 1054  LAT   Au 1810   2.652   0.408   2.244
 1055  LAT   Au 1811   2.856   0.408   2.040
 1056  LAT   Au 1812   3.060   0.612   2.040
 1057  LAT   Au 1813   2.856   0.612   2.244
 1058  LAT   Au 1814   3.060   0.408   2.244
 1059  LAT   Au 1815   3.264   0.612   2.244
 1060  LAT   Au 1816   0.204   1.020   2.040
 1061  LAT   Au 1817   0.204   0.816   2.244
 1062  LAT   Au 1818   0.408   0.816   2.040
 1063  LAT   Au 1819   0.612   1.020   2.040
 1064  LAT   Au 1820   0.408   1.020   2.244
 1065  LAT   Au 1821   0.612   0.816   2.244
 1066  LAT   Au 1822   0.816   0.816   2.040
 1067  LAT   Au 1823   1.020   1.020   2.040
 1068  LAT   Au 1824   0.816   1.020   2.244
 1069  LAT   Au 1825   1.020   0.816   2.244
 1070  LAT   Au 1826   1.224   0.816   2.040
 1071  LAT   Au 1827   1.428   1.020   2.040
 1072  LAT   Au 1828   1.224   1.020   2.244
 1073  LAT   Au 1829   1.428   0.816   2.244
 1074  LAT   Au 1830   1.632   0.816   2.040
 1075  LAT   Au 1831   1.836   1.020   2.040
 1076  LAT   Au 1832   1.632   1.020   2.244
 1077  LAT   Au 1833   1.836   0.816   2.244
 1078  LAT   Au 1834   2.040   0.816   2.040
 1079  LAT   Au 1835   2.244   1.020   2.040
 1080  LAT   Au 1836   2.040   1.020   2.244
 1081  LAT   Au 1837   2.244   0.816   2.244
 1082  LAT   Au 1838   2.448   0.816   2.040
 1083  LAT   Au 1839   2.652   1.020   2.040
 1084  LAT   Au 1840   2.448   1.020   2.244
 1085  LAT   Au 1841   2.652   0.816   2.244
 1086  LAT   Au 1842   2.856   0.816   2.040
 1087  LAT   Au 1843   3.060   1.020   2.040
 1088  LAT   Au 1844   2.856   1.020   2.244
 1089  LAT   Au 1845   3.060   0.816   2.244
 1090  LAT   Au 1846   3.264   0.816   2.040
 1091  LAT   Au 1847   3.468   1.020   2.040
 1092  LAT   Au 1848   3.264   1.020   2.244
 1093  LAT   Au 1849   3.468   0.816   2.244
 1094  LAT   Au 1850   0.000   1.224   2.040
 1095  LAT   Au 1851   0.204   1.428   2.040
 1096  LAT   Au 1852   0.000   1.428   2.244
 1097  LAT   Au 1853   0.204   1.224   2.244
 1098  LAT   Au 1854   0.408   1.224   2.040
 1099  LAT   Au 1855   0.612   1.428   2.040
 1100  LAT   Au 1856   0.408   1.428   2.244
 1101  LAT   Au 1857   0.612   1.224   2.244
 1102  LAT   Au 1858   0.816   1.224   2.040
 1103  LAT   Au 1859   1.020   1.428   2.040
 1104  LAT   Au 1860   0.816   1.428   2.244
 1105  LAT   Au 1861   1.020   1.224   2.244
 1106  LAT   Au 1862   1.224   1.224   2.040
 1107  LAT   Au 1863   1.428   1.428   2.040
 1108  LAT   Au 1864   1.224   1.428   2.244
 1109  LAT   Au 1865   1.428   1.224   2.244
 1110  LAT   Au 1866   1.632   1.224   2.040
 1111  LAT   Au 1867   1.836   1.428   2.040
 1112  LAT   Au 1868   1.632   1.428   2.244
 1113  LAT   Au 1869   1.836   1.224   2.244
 1114  LAT   Au 1870   2.040   1.224   2.040
 1115  LAT   Au 1871   2.244   1.428   2.040
 1116  LAT   Au 1872   2.040   1.428   2.244
 1117  LAT   Au 1873   2.244   1.224   2.244
 1118  LAT   Au 1874   2.448   1.224   2.040
 1119  LAT   Au 1875   2.652   1.428   2.040
 1120  LAT   Au 1876   2.448   1.428   2.244
 1121  LAT   Au 1877   2.652   1.224   2.244
 1122  LAT   Au 1878   2.856   1.224   2.040
 1123  LAT   Au 1879   3.060   1.428   2.040
 1124  LAT   Au 1880   2.856   1.428   2.244
 1125  LAT   Au 1881   3.060   1.224   2.244
 1126  LAT   Au 1882   3.264   1.224   2.040
 1127  LAT   Au 1883   3.468   1.428   2.040
 1128  LAT   Au 1884   3.264   1.428   2.244
 1129  LAT   Au 1885   3.468   1.224   2.244
 1130  LAT   Au 1886   0.000   1.632   2.040
 1131  LAT   Au 1887   0.204   1.836   2.040
 1132  LAT   Au 1888   0.000   1.836   2.244
 1133  LAT   Au 1889   0.204   1.632   2.244
 1134  LAT   Au 1890   0.408   1.632   2.040
 1135  LAT   Au 1891   0.612   1.836   2.040
 1136  LAT   Au 1892   0.408   1.836   2.244
 1137  LAT   Au 1893   0.612   1.632   2.244
 1138  LAT   Au 1894   0.816   1.632   2.040
 1139  LAT   Au 1895   1.020   1.836   2.040
 1140  LAT   Au 1896   0.816   1.836   2.244
 1141  LAT   Au 1897   1.020   1.632   2.244
 1142  LAT   Au 1898   1.224   1.632   2.040
 1143  LAT   Au 1899   1.428   1.836   2.040
 1144  LAT   Au 1900   1.224   1.836   2.244
 1145  LAT   Au 1901   1.428   1.632   2.244
 1146  LAT   Au 1902   1.632   1.632   2.040
 1147  LAT   Au 1903   1.836   1.836   2.040
 1148  LAT   Au 1904   1.632   1.836   2.244
 1149  LAT   Au 1905   1.836   1.632   2.244
 1150  LAT   Au 1906   2.040   1.632   2.040
 1151  LAT   Au 1907   2.244   1.836   2.040
 1152  LAT   Au 1908   2.040   1.836   2.244
 1153  LAT   Au 1909   2.244   1.632   2.244
 1154  LAT   Au 1910   2.448   1.632   2.040
 1155  LAT   Au 1911   2.652   1.836   2.040
 1156  LAT   Au 1912   2.448   1.836   2.244
 1157  LAT   Au 1913   2.652   1.632   2.244
 1158  LAT   Au 1914   2.856   1.632   2.040
 1159  LAT   Au 1915   3.060   1.836   2.040
 1160  LAT   Au 1916   2.856   1.836   2.244
 1161  LAT   Au 1917   3.060   1.632   2.244
 1162  LAT   Au 1918   3.264   1.632   2.040
 1163  LAT   Au 1919   3.468   1.836   2.040
 1164  LAT   Au 1920   3.264   1.836   2.244
 1165  LAT   Au 1921   3.468   1.632   2.244
 1166  LAT   Au 1922   0.000   2.040   2.040
 1167  LAT   Au 1923   0.204   2.244   2.040
 1168  LAT   Au 1924   0.000   2.244   2.244
 1169  LAT   Au 1925   0.204   2.040   2.244
 1170  LAT   Au 1926   0.408   2.040   2.040
 1171  LAT   Au 1927   0.612   2.244   2.040
 1172  LAT   Au 1928   0.408   2.244   2.244
 1173  LAT   Au 1929   0.612   2.040   2.244
 1174  LAT   Au 1930   0.816   2.040   2.040
 1175  LAT   Au 1931   1.020   2.244   2.040
 1176  LAT   Au 1932   0.816   2.244   2.244
 1177  LAT   Au 1933   1.020   2.040   2.244
 1178  LAT   Au 1934   1.224   2.040   2.040
 1179  LAT   Au 1935   1.428   2.244   2.040
 1180  LAT   Au 1936   1.224   2.244   2.244
 1181  LAT   Au 1937   1.428   2.040   2.244
 1182  LAT   Au 1938   1.632   2.040   2.040
 1183  LAT   Au 1939   1.836   2.244   2.040
 1184  LAT   Au 1940   1.632   2.244   2.244
 1185  LAT   Au 1941   1.836   2.040   2.244
 1186  LAT   Au 1942   2.040   2.040   2.040
 1187  LAT   Au 1943   2.244   2.244   2.040
 1188  LAT   Au 1944   2.040   2.244   2.244
 1189  LAT   Au 1945   2.244   2.040   2.244
 1190  LAT   Au 1946   2.448   2.040   2.040
 1191  LAT   Au 1947   2.652   2.244   2.040
 1192  LAT   Au 1948   2.448   2.244   2.244
 1193  LAT   Au 1949   2.652   2.040   2.244
 1194  LAT   Au 1950   2.856   2.040   2.040
 1195  LAT   Au 1951   3.060   2.244   2.040
 1196  LAT   Au 1952   2.856   2.244   2.244
 1197  LAT   Au 1953   3.060   2.040   2.244
 1198  LAT   Au 1954   3.264   2.040   2.040
 1199  LAT   Au 1955   3.468   2.244   2.040
 1200  LAT   Au 1956   3.264   2.244   2.244
 1201  LAT   Au 1957   3.468   2.040   2.244
 1202  LAT   Au 1958   0.000   2.448   2.040
 1203  LAT   Au 1959   0.204   2.652   2.040
 1204  LAT   Au 1960   0.204   2.448   2.244
 1205  LAT   Au 1961   0.408   2.448   2.040
 1206  LAT   Au 1962   0.612   2.652   2.040
 1207  LAT   Au 1963   0.408   2.652   2.244
 1208  LAT   Au 1964   0.612   2.448   2.244
 1209  LAT   Au 1965   0.816   2.448   2.040
 1210  LAT   Au 1966   1.020   2.652   2.040
 1211  LAT   Au 1967   0.816   2.652   2.244
 1212  LAT   Au 1968   1.020   2.448   2.244
 1213  LAT   Au 1969   1.224   2.448   2.040
 1214  LAT   Au 1970   1.428   2.652   2.040
 1215  LAT   Au 1971   1.224   2.652   2.244
 1216  LAT   Au 1972   1.428   2.448   2.244
 1217  LAT   Au 1973   1.632   2.448   2.040
 1218  LAT   Au 1974   1.836   2.652   2.040
 1219  LAT   Au 1975   1.632   2.652   2.244
 1220  LAT   Au 1976   1.836   2.448   2.244
 1221  LAT   Au 1977   2.040   2.448   2.040
 1222  LAT   Au 1978   2.244   2.652   2.040
 1223  LAT   Au 1979   2.040   2.652   2.244
 1224  LAT   Au 1980   2.244   2.448   2.244
 1225  LAT   Au 1981   2.448   2.448   2.040
 1226  LAT   Au 1982   2.652   2.652   2.040
 1227  LAT   Au 1983   2.448   2.652   2.244
 1228  LAT   Au 1984   2.652   2.448   2.244
 1229  LAT   Au 1985   2.856   2.448   2.040
 1230  LAT   Au 1986   3.060   2.652   2.040
 1231  LAT   Au 1987   2.856   2.652   2.244
 1232  LAT   Au 1988   3.060   2.448   2.244
 1233  LAT   Au 1989   3.264   2.448   2.040
 1234  LAT   Au 1990   3.468   2.652   2.040
 1235  LAT   Au 1991   3.264   2.652   2.244
 1236  LAT   Au 1992   3.468   2.448   2.244
 1237  LAT   Au 1993   0.204   2.856   2.244
 1238  LAT   Au 1994   0.408   2.856   2.040
 1239  LAT   Au 1995   0.612   3.060   2.040
 1240  LAT   Au 1996   0.408   3.060   2.244
 1241  LAT   Au 1997   0.612   2.856   2.244
 1242  LAT   Au 1998   0.816   2.856   2.040
 1243  LAT   Au 1999   1.020   3.060   2.040
 1244  LAT   Au 2000   0.816   3.060   2.244
 1245  LAT   Au 2001   1.020   2.856   2.244
 1246  LAT   Au 2002   1.224   2.856   2.040
 1247  LAT   Au 2003   1.428   3.060   2.040
 1248  LAT   Au 2004   1.224   3.060   2.244
 1249  LAT   Au 2005   1.428   2.856   2.244
 1250  LAT   Au 2006   1.632   2.856   2.040
 1251  LAT   Au 2007   1.836   3.060   2.040
 1252  LAT   Au 2008   1.632   3.060   2.244
 1253  LAT   Au 2009   1.836   2.856   2.244
 1254  LAT   Au 2010   2.040   2.856   2.040
 1255  LAT   Au 2011   2.244   3.060   2.040
 1256  LAT   Au 2012   2.040   3.060   2.244
 1257  LAT   Au 2013   2.244   2.856   2.244
 1258  LAT   Au 2014   2.448   2.856   2.040
 1259  LAT   Au 2015   2.652   3.060   2.040
 1260  LAT   Au 2016   2.448   3.060   2.244
 1261  LAT   Au 2017   2.652   2.856   2.244
 1262  LAT   Au 2018   2.856   2.856   2.040
 1263  LAT   Au 2019   3.060   3.060   2.040
 1264  LAT   Au 2020   2.856   3.060   2.244
 1265  LAT   Au 2021   3.060   2.856   2.244
 1266  LAT   Au 2022   3.264   2.856   2.040
 1267  LAT   Au 2023   3.264   3.060   2.244
 1268  LAT   Au 2024   3.468   2.856   2.244
 1269  LAT   Au 2025   0.612   3.264   2.244
 1270  LAT   Au 2026   0.816   3.264   2.040
 1271  LAT   Au 2027   1.020   3.468   2.040
 1272  LAT   Au 2028   0.816   3.468   2.244
 1273  LAT   Au 2029   1.020   3.264   2.244
 1274  LAT   Au 2030   1.224   3.264   2.040
 1275  LAT   Au 2031   1.428   3.468   2.040
 1276  LAT   Au 2032   1.224   3.468   2.244
 1277  LAT   Au 2033   1.428   3.264   2.244
 1278  LAT   Au 2034   1.632   3.264   2.040
 1279  LAT   Au 2035   1.836   3.468   2.040
 1280  LAT   Au 2036   1.632   3.468   2.244
 1281  LAT   Au 2037   1.836   3.264   2.244
 1282  LAT   Au 2038   2.040   3.264   2.040
 1283  LAT   Au 2039   2.244   3.468   2.040
 1284  LAT   Au 2040   2.040   3.468   2.244
 1285  LAT   Au 2041   2.244   3.264   2.244
 1286  LAT   Au 2042   2.448   3.264   2.040
 1287  LAT   Au 2043   2.652   3.468   2.040
 1288  LAT   Au 2044   2.448   3.468   2.244
 1289  LAT   Au 2045   2.652   3.264   2.244
 1290  LAT   Au 2046   2.856   3.264   2.040
 1291  LAT   Au 2047   2.856   3.468   2.244
 1292  LAT   Au 2048   3.060   3.264   2.244
 1293  LAT   Au 2049   1.020   0.204   2.448
 1294  LAT   Au 2050   1.428   0.204   2.448
 1295  LAT   Au 2051   1.224   0.204   2.652
 1296  LAT   Au 2052   1.632   0.000   2.448
 1297  LAT   Au 2053   1.836   0.204   2.448
 1298  LAT   Au 2054   1.632   0.204   2.652
 1299  LAT   Au 2055   2.040   0.000   2.448
 1300  LAT   Au 2056   2.244   0.204   2.448
 1301  LAT   Au 2057   2.040   0.204   2.652
 1302  LAT   Au 2058   2.652   0.204   2.448
 1303  LAT   Au 2059   2.448   0.204   2.652
 1304  LAT   Au 2060   0.612   0.612   2.448
 1305  LAT   Au 2061   0.816   0.408   2.448
 1306  LAT   Au 2062   1.020   0.612   2.448
 1307  LAT   Au 2063   0.816   0.612   2.652
 1308  LAT   Au 2064   1.020   0.408   2.652
 1309  LAT   Au 2065   1.224   0.408   2.448
 1310  LAT   Au 2066   1.428   0.612   2.448
 1311  LAT   Au 2067   1.224   0.612   2.652
 1312  LAT   Au 2068   1.428   0.408   2.652
 1313  LAT   Au 2069   1.632   0.408   2.448
 1314  LAT   Au 2070   1.836   0.612   2.448
 1315  LAT   Au 2071   1.632   0.612   2.652
 1316  LAT   Au 2072   1.836   0.408   2.652
 1317  LAT   Au 2073   2.040   0.408   2.448
 1318  LAT   Au 2074   2.244   0.612   2.448
 1319  LAT   Au 2075   2.040   0.612   2.652
 1320  LAT   Au 2076   2.244   0.408   2.652
 1321  LAT   Au 2077   2.448   0.408   2.448
 1322  LAT   Au 2078   2.652   0.612   2.448
 1323  LAT   Au 2079   2.448   0.612   2.652
 1324  LAT   Au 2080   2.652   0.408   2.652
 1325  LAT   Au 2081   2.856   0.408   2.448
 1326  LAT   Au 2082   3.060   0.612   2.448
 1327  LAT   Au 2083   2.856   0.612   2.652
 1328  LAT   Au 2084   0.204   1.020   2.448
 1329  LAT   Au 2085   0.408   0.816   2.448
 1330  LAT   Au 2086   0.612   1.020   2.448
 1331  LAT   Au 2087   0.408   1.020   2.652
 1332  LAT   Au 2088   0.612   0.816   2.652
 1333  LAT   Au 2089   0.816   0.816   2.448
 1334  LAT   Au 2090   1.020   1.020   2.448
 1335  LAT   Au 2091   0.816   1.020   2.652
 1336  LAT   Au 2092   1.020   0.816   2.652
 1337  LAT   Au 2093   1.224   0.816   2.448
 1338  LAT   Au 2094   1.428   1.020   2.448
 1339  LAT   Au 2095   1.224   1.020   2.652
 1340  LAT   Au 2096   1.428   0.816   2.652
 1341  LAT   Au 2097   1.632   0.816   2.448
 1342  LAT   Au 2098   1.836   1.020   2.448
 1343  LAT   Au 2099   1.632   1.020   2.652
 1344  LAT   Au 2100   1.836   0.816   2.652
 1345  LAT   Au 2101   2.040   0.816   2.448
 1346  LAT   Au 2102   2.244   1.020   2.448
 1347  LAT   Au 2103   2.040   1.020   2.652
 1348  LAT   Au 2104   2.244   0.816   2.652
 1349  LAT   Au 2105   2.448   0.816   2.448
 1350  LAT   Au 2106   2.652   1.020   2.448
 1351  LAT   Au 2107   2.448   1.020   2.652
 1352  LAT   Au 2108   2.652   0.816   2.652
 1353  LAT   Au 2109   2.856   0.816   2.448
 1354  LAT   Au 2110   3.060   1.020   2.448
 1355  LAT   Au 2111   2.856   1.020   2.652
 1356  LAT   Au 2112   3.060   0.816   2.652
 1357  LAT   Au 2113   3.264   0.816   2.448
 1358  LAT   Au 2114   3.468   1.020   2.448
 1359  LAT   Au 2115   3.264   1.020   2.652
 1360  LAT   Au 2116   0.204   1.428   2.448
 1361  LAT   Au 2117   0.204   1.224   2.652
 1362  LAT   Au 2118   0.408   1.224   2.448
 1363  LAT   Au 2119   0.612   1.428   2.448
 1364  LAT   Au 2120   0.408   1.428   2.652
 1365  LAT   Au 2121   0.612   1.224   2.652
 1366  LAT   Au 2122   0.816   1.224   2.448
 1367  LAT   Au 2123   1.020   1.428   2.448
 1368  LAT   Au 2124   0.816   1.428   2.652
 1369  LAT   Au 2125   1.020   1.224   2.652
 1370  LAT   Au 2126   1.224   1.224   2.448
 1371  LAT   Au 2127   1.428   1.428   2.448
 1372  LAT   Au 2128   1.224   1.428   2.652
 1373  LAT   Au 2129   1.428   1.224   2.652
 1374  LAT   Au 2130   1.632   1.224   2.448
 1375  LAT   Au 2131   1.836   1.428   2.448
 1376  LAT   Au 2132   1.632   1.428   2.652
 1377  LAT   Au 2133   1.836   1.224   2.652
 1378  LAT   Au 2134   2.040   1.224   2.448
 1379  LAT   Au 2135   2.244   1.428   2.448
 1380  LAT   Au 2136   2.040   1.428   2.652
 1381  LAT   Au 2137   2.244   1.224   2.652
 1382  LAT   Au 2138   2.448   1.224   2.448
 1383  LAT   Au 2139   2.652   1.428   2.448
 1384  LAT   Au 2140   2.448   1.428   2.652
 1385  LAT   Au 2141   2.652   1.224   2.652
 1386  LAT   Au 2142   2.856   1.224   2.448
 1387  LAT   Au 2143   3.060   1.428   2.448
 1388  LAT   Au 2144   2.856   1.428   2.652
 1389  LAT   Au 2145   3.060   1.224   2.652
 1390  LAT   Au 2146   3.264   1.224   2.448
 1391  LAT   Au 2147   3.468   1.428   2.448
 1392  LAT   Au 2148   3.264   1.428   2.652
 1393  LAT   Au 2149   3.468   1.224   2.652
 1394  LAT   Au 2150   0.000   1.632   2.448
 1395  LAT   Au 2151   0.204   1.836   2.448
 1396  LAT   Au 2152   0.204   1.632   2.652
 1397  LAT   Au 2153   0.408   1.632   2.448
 1398  LAT   Au 2154   0.612   1.836   2.448
 1399  LAT   Au 2155   0.408   1.836   2.652
 1400  LAT   Au 2156   0.612   1.632   2.652
 1401  LAT   Au 2157   0.816   1.632   2.448
 1402  LAT   Au 2158   1.020   1.836   2.448
 1403  LAT   Au 2159   0.816   1.836   2.652
 1404  LAT   Au 2160   1.020   1.632   2.652
 1405  LAT   Au 2161   1.224   1.632   2.448
 1406  LAT   Au 2162   1.428   1.836   2.448
 1407  LAT   Au 2163   1.224   1.836   2.652
 1408  LAT   Au 2164   1.428   1.632   2.652
 1409  LAT   Au 2165   1.632   1.632   2.448
 1410  LAT   Au 2166   1.836   1.836   2.448
 1411  LAT   Au 2167   1.632   1.836   2.652
 1412  LAT   Au 2168   1.836   1.632   2.652
 1413  LAT   Au 2169   2.040   1.632   2.448
 1414  LAT   Au 2170   2.244   1.836   2.448
 1415  LAT   Au 2171   2.040   1.836   2.652
 1416  LAT   Au 2172   2.244   1.632   2.652
 1417  LAT   Au 2173   2.448   1.632   2.448
 1418  LAT   Au 2174   2.652   1.836   2.448
 1419  LAT   Au 2175   2.448   1.836   2.652
 1420  LAT   Au 2176   2.652   1.632   2.652
 1421  LAT   Au 2177   2.856   1.632   2.448
 1422  LAT   Au 2178   3.060   1.836   2.448
 1423  LAT   Au 2179   2.856   1.836   2.652
 1424  LAT   Au 2180   3.060   1.632   2.652
 1425  LAT   Au 2181   3.264   1.632   2.448
 1426  LAT   Au 2182   3.468   1.836   2.448
 1427  LAT   Au 2183   3.264   1.836   2.652
 1428  LAT   Au 2184   3.468   1.632   2.652
 1429  LAT   Au 2185   0.000   2.040   2.448
 1430  LAT   Au 2186   0.204   2.244   2.448
 1431  LAT   Au 2187   0.204   2.040   2.652
 1432  LAT   Au 2188   0.408   2.040   2.448
 1433  LAT   Au 2189   0.612   2.244   2.448
 1434  LAT   Au 2190   0.408   2.244   2.652
 1435  LAT   Au 2191   0.612   2.040   2.652
 1436  LAT   Au 2192   0.816   2.040   2.448
 1437  LAT   Au 2193   1.020   2.244   2.448
 1438  LAT   Au 2194   0.816   2.244   2.652
 1439  LAT   Au 2195   1.020   2.040   2.652
 1440  LAT   Au 2196   1.224   2.040   2.448
 1441  LAT   Au 2197   1.428   2.244   2.448
 1442  LAT   Au 2198   1.224   2.244   2.652
 1443  LAT   Au 2199   1.428   2.040   2.652
 1444  LAT   Au 2200   1.632   2.040   2.448
 1445  LAT   Au 2201   1.836   2.244   2.448
 1446  LAT   Au 2202   1.632   2.244   2.652
 1447  LAT   Au 2203   1.836   2.040   2.652
 1448  LAT   Au 2204   2.040   2.040   2.448
 1449  LAT   Au 2205   2.244   2.244   2.448
 1450  LAT   Au 2206   2.040   2.244   2.652
 1451  LAT   Au 2207   2.244   2.040   2.652
 1452  LAT   Au 2208   2.448   2.040   2.448
 1453  LAT   Au 2209   2.652   2.244   2.448
 1454  LAT   Au 2210   2.448   2.244   2.652
 1455  LAT   Au 2211   2.652   2.040   2.652
 1456  LAT   Au 2212   2.856   2.040   2.448
 1457  LAT   Au 2213   3.060   2.244   2.448
 1458  LAT   Au 2214   2.856   2.244   2.652
 1459  LAT   Au 2215   3.060   2.040   2.652
 1460  LAT   Au 2216   3.264   2.040   2.448
 1461  LAT   Au 2217   3.468   2.244   2.448
 1462  LAT   Au 2218   3.264   2.244   2.652
 1463  LAT   Au 2219   3.468   2.040   2.652
 1464  LAT   Au 2220   0.204   2.652   2.448
 1465  LAT   Au 2221   0.204   2.448   2.652
 1466  LAT   Au 2222   0.408   2.448   2.448
 1467  LAT   Au 2223   0.612   2.652   2.448
 1468  LAT   Au 2224   0.408   2.652   2.652
 1469  LAT   Au 2225   0.612   2.448   2.652
 1470  LAT   Au 2226   0.816   2.448   2.448
 1471  LAT   Au 2227   1.020   2.652   2.448
 1472  LAT   Au 2228   0.816   2.652   2.652
 1473  LAT   Au 2229   1.020   2.448   2.652
 1474  LAT   Au 2230   1.224   2.448   2.448
 1475  LAT   Au 2231   1.428   2.652   2.448
 1476  LAT   Au 2232   1.224   2.652   2.652
 1477  LAT   Au 2233   1.428   2.448   2.652
 1478  LAT   Au 2234   1.632   2.448   2.448
 1479  LAT   Au 2235   1.836   2.652   2.448
 1480  LAT   Au 2236   1.632   2.652   2.652
 1481  LAT   Au 2237   1.836   2.448   2.652
 1482  LAT   Au 2238   2.040   2.448   2.448
 1483  LAT   Au 2239   2.244   2.652   2.448
 1484  LAT   Au 2240   2.040   2.652   2.652
 1485  LAT   Au 2241   2.244   2.448   2.652
 1486  LAT   Au 2242   2.448   2.448   2.448
 1487  LAT   Au 2243   2.652   2.652   2.448
 1488  LAT   Au 2244   2.448   2.652   2.652
 1489  LAT   Au 2245   2.652   2.448   2.652
 1490  LAT   Au 2246   2.856   2.448   2.448
 1491  LAT   Au 2247   3.060   2.652   2.448
 1492  LAT   Au 2248   2.856   2.652   2.652
 1493  LAT   Au 2249   3.060   2.448   2.652
 1494  LAT   Au 2250   3.264   2.448   2.448
 1495  LAT   Au 2251   3.468   2.652   2.448
 1496  LAT   Au 2252   3.264   2.652   2.652
 1497  LAT   Au 2253   3.468   2.448   2.652
 1498  LAT   Au 2254   0.408   2.856   2.448
 1499  LAT   Au 2255   0.612   3.060   2.448
 1500  LAT   Au 2256   0.612   2.856   2.652
 1501  LAT   Au 2257   0.816   2.856   2.448
 1502  LAT   Au 2258   1.020   3.060   2.448
 1503  LAT   Au 2259   0.816   3.060   2.652
 1504  LAT   Au 2260   1.020   2.856   2.652
 1505  LAT   Au 2261   1.224   2.856   2.448
 1506  LAT   Au 2262   1.428   3.060   2.448
 1507  LAT   Au 2263   1.224   3.060   2.652
 1508  LAT   Au 2264   1.428   2.856   2.652
 1509  LAT   Au 2265   1.632   2.856   2.448
 1510  LAT   Au 2266   1.836   3.060   2.448
 1511  LAT   Au 2267   1.632   3.060   2.652
 1512  LAT   Au 2268   1.836   2.856   2.652
 1513  LAT   Au 2269   2.040   2.856   2.448
 1514  LAT   Au 2270   2.244   3.060   2.448
 1515  LAT   Au 2271   2.040   3.060   2.652
 1516  LAT   Au 2272   2.244   2.856   2.652
 1517  LAT   Au 2273   2.448   2.856   2.448
 1518  LAT   Au 2274   2.652   3.060   2.448
 1519  LAT   Au 2275   2.448   3.060   2.652
 1520  LAT   Au 2276   2.652   2.856   2.652
 1521  LAT   Au 2277   2.856   2.856   2.448
 1522  LAT   Au 2278   3.060   3.060   2.448
 1523  LAT   Au 2279   2.856   3.060   2.652
 1524  LAT   Au 2280   3.060   2.856   2.652
 1525  LAT   Au 2281   3.264   2.856   2.448
 1526  LAT   Au 2282   0.816   3.264   2.448
 1527  LAT   Au 2283   1.020   3.468   2.448
 1528  LAT   Au 2284   1.020   3.264   2.652
 1529  LAT   Au 2285   1.224   3.264   2.448
 1530  LAT   Au 2286   1.428   3.468   2.448
 1531  LAT   Au 2287   1.224   3.468   2.652
 1532  LAT   Au 2288   1.428   3.264   2.652
 1533  LAT   Au 2289   1.632   3.264   2.448
 1534  LAT   Au 2290   1.836   3.468   2.448
 1535  LAT   Au 2291   1.632   3.468   2.652
 1536  LAT   Au 2292   1.836   3.264   2.652
 1537  LAT   Au 2293   2.040   3.264   2.448
 1538  LAT   Au 2294   2.244   3.468   2.448
 1539  LAT   Au 2295   2.040   3.468   2.652
 1540  LAT   Au 2296   2.244   3.264   2.652
 1541  LAT   Au 2297   2.448   3.264   2.448
 1542  LAT   Au 2298   2.652   3.468   2.448
 1543  LAT   Au 2299   2.448   3.468   2.652
 1544  LAT   Au 2300   2.652   3.264   2.652
 1545  LAT   Au 2301   2.856   3.264   2.448
 1546  LAT   Au 2302   1.428   0.204   2.856
 1547  LAT   Au 2303   1.836   0.204   2.856
 1548  LAT   Au 2304   2.244   0.204   2.856
 1549  LAT   Au 2305   1.020   0.612   2.856
 1550  LAT   Au 2306   1.224   0.408   2.856
 1551  LAT   Au 2307   1.428   0.612   2.856
 1552  LAT   Au 2308   1.224   0.612   3.060
 1553  LAT   Au 2309   1.428   0.408   3.060
 1554  LAT   Au 2310   1.632   0.408   2.856
 1555  LAT   Au 2311   1.836   0.612   2.856
 1556  LAT   Au 2312   1.632   0.612   3.060
 1557  LAT   Au 2313   1.836   0.408   3.060
 1558  LAT   Au 2314   2.040   0.408   2.856
 1559  LAT   Au 2315   2.244   0.612   2.856
 1560  LAT   Au 2316   2.040   0.612   3.060
 1561  LAT   Au 2317   2.244   0.408   3.060
 1562  LAT   Au 2318   2.448   0.408   2.856
 1563  LAT   Au 2319   2.652   0.612   2.856
 1564  LAT   Au 2320   2.448   0.612   3.060
 1565  LAT   Au 2321   0.612   1.020   2.856
 1566  LAT   Au 2322   0.816   0.816   2.856
 1567  LAT   Au 2323   1.020   1.020   2.856
 1568  LAT   Au 2324   0.816   1.020   3.060
 1569  LAT   Au 2325   1.020   0.816   3.060
 1570  LAT   Au 2326   1.224   0.816   2.856
 1571  LAT   Au 2327   1.428   1.020   2.856
 1572  LAT   Au 2328   1.224   1.020   3.060
 1573  LAT   Au 2329   1.428   0.816   3.060
 1574  LAT   Au 2330   1.632   0.816   2.856
 1575  LAT   Au 2331   1.836   1.020   2.856
 1576  LAT   Au 2332   1.632   1.020   3.060
 1577  LAT   Au 2333   1.836   0.816   3.060
 1578  LAT   Au 2334   2.040   0.816   2.856
 1579  LAT   Au 2335   2.244   1.020   2.856
 1580  LAT   Au 2336   2.040   1.020   3.060
 1581  LAT   Au 2337   2.244   0.816   3.060
 1582  LAT   Au 2338   2.448   0.816   2.856
 1583  LAT   Au 2339   2.652   1.020   2.856
 1584  LAT   Au 2340   2.448   1.020   3.060
 1585  LAT   Au 2341   2.652   0.816   3.060
 1586  LAT   Au 2342   2.856   0.816   2.856
 1587  LAT   Au 2343   3.060   1.020   2.856
 1588  LAT   Au 2344   2.856   1.020   3.060
 1589  LAT   Au 2345   0.204   1.428   2.856
 1590  LAT   Au 2346   0.408   1.224   2.856
 1591  LAT   Au 2347   0.612   1.428   2.856
 1592  LAT   Au 2348   0.408   1.428   3.060
 1593  LAT   Au 2349   0.612   1.224   3.060
 1594  LAT   Au 2350   0.816   1.224   2.856
 1595  LAT   Au 2351   1.020   1.428   2.856
 1596  LAT   Au 2352   0.816   1.428   3.060
 1597  LAT   Au 2353   1.020   1.224   3.060
 1598  LAT   Au 2354   1.224   1.224   2.856
 1599  LAT   Au 2355   1.428   1.428   2.856
 1600  LAT   Au 2356   1.224   1.428   3.060
 1601  LAT   Au 2357   1.428   1.224   3.060
 1602  LAT   Au 2358   1.632   1.224   2.856
 1603  LAT   Au 2359   1.836   1.428   2.856
 1604  LAT   Au 2360   1.632   1.428   3.060
 1605  LAT   Au 2361   1.836   1.224   3.060
 1606  LAT   Au 2362   2.040   1.224   2.856
 1607  LAT   Au 2363   2.244   1.428   2.856
 1608  LAT   Au 2364   2.040   1.428   3.060
 1609  LAT   Au 2365   2.244   1.224   3.060
 1610  LAT   Au 2366   2.448   1.224   2.856
 1611  LAT   Au 2367   2.652   1.428   2.856
 1612  LAT   Au 2368   2.448   1.428   3.060
 1613  LAT   Au 2369   2.652   1.224   3.060
 1614  LAT   Au 2370   2.856   1.224   2.856
 1615  LAT   Au 2371   3.060   1.428   2.856
 1616  LAT   Au 2372   2.856   1.428   3.060
 1617  LAT   Au 2373   3.060   1.224   3.060
 1618  LAT   Au 2374   3.264   1.224   2.856
 1619  LAT   Au 2375   3.468   1.428   2.856
 1620  LAT   Au 2376   3.264   1.428   3.060
 1621  LAT   Au 2377   0.204   1.836   2.856
 1622  LAT   Au 2378   0.408   1.632   2.856
 1623  LAT   Au 2379   0.612   1.836   2.856
 1624  LAT   Au 2380   0.408   1.836   3.060
 1625  LAT   Au 2381   0.612   1.632   3.060
 1626  LAT   Au 2382   0.816   1.632   2.856
 1627  LAT   Au 2383   1.020   1.836   2.856
 1628  LAT   Au 2384   0.816   1.836   3.060
 1629  LAT   Au 2385   1.020   1.632   3.060
 1630  LAT   Au 2386   1.224   1.632   2.856
 1631  LAT   Au 2387   1.428   1.836   2.856
 1632  LAT   Au 2388   1.224   1.836   3.060
 1633  LAT   Au 2389   1.428   1.632   3.060
 1634  LAT   Au 2390   1.632   1.632   2.856
 1635  LAT   Au 2391   1.836   1.836   2.856
 1636  LAT   Au 2392   1.632   1.836   3.060
 1637  LAT   Au 2393   1.836   1.632   3.060
 1638  LAT   Au 2394   2.040   1.632   2.856
 1639  LAT   Au 2395   2.244   1.836   2.856
 1640  LAT   Au 2396   2.040   1.836   3.060
 1641  LAT   Au 2397   2.244   1.632   3.060
 1642  LAT   Au 2398   2.448   1.632   2.856
 1643  LAT   Au 2399   2.652   1.836   2.856
 1644  LAT   Au 2400   2.448   1.836   3.060
 1645  LAT   Au 2401   2.652   1.632   3.060
 1646  LAT   Au 2402   2.856   1.632   2.856
 1647  LAT   Au 2403   3.060   1.836   2.856
 1648  LAT   Au 2404   2.856   1.836   3.060
 1649  LAT   Au 2405   3.060   1.632   3.060
 1650  LAT   Au 2406   3.264   1.632   2.856
 1651  LAT   Au 2407   3.468   1.836   2.856
 1652  LAT   Au 2408   3.264   1.836   3.060
 1653  LAT   Au 2409   0.204   2.244   2.856
 1654  LAT   Au 2410   0.408   2.040   2.856
 1655  LAT   Au 2411   0.612   2.244   2.856
 1656  LAT   Au 2412   0.408   2.244   3.060
 1657  LAT   Au 2413   0.612   2.040   3.060
 1658  LAT   Au 2414   0.816   2.040   2.856
 1659  LAT   Au 2415   1.020   2.244   2.856
 1660  LAT   Au 2416   0.816   2.244   3.060
 1661  LAT   Au 2417   1.020   2.040   3.060
 1662  LAT   Au 2418   1.224   2.040   2.856
 1663  LAT   Au 2419   1.428   2.244   2.856
 1664  LAT   Au 2420   1.224   2.244   3.060
 1665  LAT   Au 2421   1.428   2.040   3.060
 1666  LAT   Au 2422   1.632   2.040   2.856
 1667  LAT   Au 2423   1.836   2.244   2.856
 1668  LAT   Au 2424   1.632   2.244   3.060
 1669  LAT   Au 2425   1.836   2.040   3.060
 1670  LAT   Au 2426   2.040   2.040   2.856
 1671  LAT   Au 2427   2.244   2.244   2.856
 1672  LAT   Au 2428   2.040   2.244   3.060
 1673  LAT   Au 2429   2.244   2.040   3.060
 1674  LAT   Au 2430   2.448   2.040   2.856
 1675  LAT   Au 2431   2.652   2.244   2.856
 1676  LAT   Au 2432   2.448   2.244   3.060
 1677  LAT   Au 2433   2.652   2.040   3.060
 1678  LAT   Au 2434   2.856   2.040   2.856
 1679  LAT   Au 2435   3.060   2.244   2.856
 1680  LAT   Au 2436   2.856   2.244   3.060
 1681  LAT   Au 2437   3.060   2.040   3.060
 1682  LAT   Au 2438   3.264   2.040   2.856
 1683  LAT   Au 2439   3.468   2.244   2.856
 1684  LAT   Au 2440   3.264   2.244   3.060
 1685  LAT   Au 2441   0.408   2.448   2.856
 1686  LAT   Au 2442   0.612   2.652   2.856
 1687  LAT   Au 2443   0.612   2.448   3.060
 1688  LAT   Au 2444   0.816   2.448   2.856
 1689  LAT   Au 2445   1.020   2.652   2.856
 1690  LAT   Au 2446   0.816   2.652   3.060
 1691  LAT   Au 2447   1.020   2.448   3.060
 1692  LAT   Au 2448   1.224   2.448   2.856
 1693  LAT   Au 2449   1.428   2.652   2.856
 1694  LAT   Au 2450   1.224   2.652   3.060
 1695  LAT   Au 2451   1.428   2.448   3.060
 1696  LAT   Au 2452   1.632   2.448   2.856
 1697  LAT   Au 2453   1.836   2.652   2.856
 1698  LAT   Au 2454   1.632   2.652   3.060
 1699  LAT   Au 2455   1.836   2.448   3.060
 1700  LAT   Au 2456   2.040   2.448   2.856
 1701  LAT   Au 2457   2.244   2.652   2.856
 1702  LAT   Au 2458   2.040   2.652   3.060
 1703  LAT   Au 2459   2.244   2.448   3.060
 1704  LAT   Au 2460   2.448   2.448   2.856
 1705  LAT   Au 2461   2.652   2.652   2.856
 1706  LAT   Au 2462   2.448   2.652   3.060
 1707  LAT   Au 2463   2.652   2.448   3.060
 1708  LAT   Au 2464   2.856   2.448   2.856
 1709  LAT   Au 2465   3.060   2.652   2.856
 1710  LAT   Au 2466   2.856   2.652   3.060
 1711  LAT   Au 2467   3.060   2.448   3.060
 1712  LAT   Au 2468   3.264   2.448   2.856
 1713  LAT   Au 2469   0.816   2.856   2.856
 1714  LAT   Au 2470   1.020   3.060   2.856
 1715  LAT   Au 2471   1.020   2.856   3.060
 1716  LAT   Au 2472   1.224   2.856   2.856
 1717  LAT   Au 2473   1.428   3.060   2.856
 1718  LAT   Au 2474   1.224   3.060   3.060
 1719  LAT   Au 2475   1.428   2.856   3.060
 1720  LAT   Au 2476   1.632   2.856   2.856
 1721  LAT   Au 2477   1.836   3.060   2.856
 1722  LAT   Au 2478   1.632   3.060   3.060
 1723  LAT   Au 2479   1.836   2.856   3.060
 1724  LAT   Au 2480   2.040   2.856   2.856
 1725  LAT   Au 2481   2.244   3.060   2.856
 1726  LAT   Au 2482   2.040   3.060   3.060
 1727  LAT   Au 2483   2.244   2.856   3.060
 1728  LAT   Au 2484   2.448   2.856   2.856
 1729  LAT   Au 2485   2.652   3.060   2.856
 1730  LAT   Au 2486   2.448   3.060   3.060
 1731  LAT   Au 2487   2.652   2.856   3.060
 1732  LAT   Au 2488   2.856   2.856   2.856
 1733  LAT   Au 2489   1.224   3.264   2.856
 1734  LAT   Au 2490   1.428   3.468   2.856
 1735  LAT   Au 2491   1.428   3.264   3.060
 1736  LAT   Au 2492   1.632   3.264   2.856
 1737  LAT   Au 2493   1.836   3.468   2.856
 1738  LAT   Au 2494   1.836   3.264   3.060
 1739  LAT   Au 2495   2.040   3.264   2.856
 1740  LAT   Au 2496   2.244   3.468   2.856
 1741  LAT   Au 2497   2.244   3.264   3.060
 1742  LAT   Au 2498   2.448   3.264   2.856
 1743  LAT   Au 2499   1.428   0.612   3.264
 1744  LAT   Au 2500   1.836   0.612   3.264
 1745  LAT   Au 2501   2.244   0.612   3.264
 1746  LAT   Au 2502   1.020   1.020   3.264
 1747  LAT   Au 2503   1.224   0.816   3.264
 1748  LAT   Au 2504   1.428   1.020   3.264
 1749  LAT   Au 2505   1.224   1.020   3.468
 1750  LAT   Au 2506   1.428   0.816   3.468
 1751  LAT   Au 2507   1.632   0.816   3.264
 1752  LAT   Au 2508   1.836   1.020   3.264
 1753  LAT   Au 2509   1.632   1.020   3.468
 1754  LAT   Au 2510   1.836   0.816   3.468
 1755  LAT   Au 2511   2.040   0.816   3.264
 1756  LAT   Au 2512   2.244   1.020   3.264
 1757  LAT   Au 2513   2.040   1.020   3.468
 1758  LAT   Au 2514   2.244   0.816   3.468
 1759  LAT   Au 2515   2.448   0.816   3.264
 1760  LAT   Au 2516   2.652   1.020   3.264
 1761  LAT   Au 2517   2.448   1.020   3.468
 1762  LAT   Au 2518   0.612   1.428   3.264
 1763  LAT   Au 2519   0.816   1.224   3.264
 1764  LAT   Au 2520   1.020   1.428   3.264
 1765  LAT   Au 2521   0.816   1.428   3.468
 1766  LAT   Au 2522   1.020   1.224   3.468
 1767  LAT   Au 2523   1.224   1.224   3.264
 1768  LAT   Au 2524   1.428   1.428   3.264
 1769  LAT   Au 2525   1.224   1.428   3.468
 1770  LAT   Au 2526   1.428   1.224   3.468
 1771  LAT   Au 2527   1.632   1.224   3.264
 1772  LAT   Au 2528   1.836   1.428   3.264
 1773  LAT   Au 2529   1.632   1.428   3.468
 1774  LAT   Au 2530   1.836   1.224   3.468
 1775  LAT   Au 2531   2.040   1.224   3.264
 1776  LAT   Au 2532   2.244   1.428   3.264
 1777  LAT   Au 2533   2.040   1.428   3.468
 1778  LAT   Au 2534   2.244   1.224   3.468
 1779  LAT   Au 2535   2.448   1.224   3.264
 1780  LAT   Au 2536   2.652   1.428   3.264
 1781  LAT   Au 2537   2.448   1.428   3.468
 1782  LAT   Au 2538   2.652   1.224   3.468
 1783  LAT   Au 2539   2.856   1.224   3.264
 1784  LAT   Au 2540   3.060   1.428   3.264
 1785  LAT   Au 2541   2.856   1.428   3.468
 1786  LAT   Au 2542   0.612   1.836   3.264
 1787  LAT   Au 2543   0.816   1.632   3.264
 1788  LAT   Au 2544   1.020   1.836   3.264
 1789  LAT   Au 2545   0.816   1.836   3.468
 1790  LAT   Au 2546   1.020   1.632   3.468
 1791  LAT   Au 2547   1.224   1.632   3.264
 1792  LAT   Au 2548   1.428   1.836   3.264
 1793  LAT   Au 2549   1.224   1.836   3.468
 1794  LAT   Au 2550   1.428   1.632   3.468
 1795  LAT   Au 2551   1.632   1.632   3.264
 1796  LAT   Au 2552   1.836   1.836   3.264
 1797  LAT   Au 2553   1.632   1.836   3.468
 1798  LAT   Au 2554   1.836   1.632   3.468
 1799  LAT   Au 2555   2.040   1.632   3.264
 1800  LAT   Au 2556   2.244   1.836   3.264
 1801  LAT   Au 2557   2.040   1.836   3.468
 1802  LAT   Au 2558   2.244   1.632   3.468
 1803  LAT   Au 2559   2.448   1.632   3.264
 1804  LAT   Au 2560   2.652   1.836   3.264
 1805  LAT   Au 2561   2.448   1.836   3.468
 1806  LAT   Au 2562   2.652   1.632   3.468
 1807  LAT   Au 2563   2.856   1.632   3.264
 1808  LAT   Au 2564   3.060   1.836   3.264
 1809  LAT   Au 2565   2.856   1.836   3.468
 1810  LAT   Au 2566   0.612   2.244   3.264
 1811  LAT   Au 2567   0.816   2.040   3.264
 1812  LAT   Au 2568   1.020   2.244   3.264
 1813  LAT   Au 2569   0.816   2.244   3.468
 1814  LAT   Au 2570   1.020   2.040   3.468
 1815  LAT   Au 2571   1.224   2.040   3.264
 1816  LAT   Au 2572   1.428   2.244   3.264
 1817  LAT   Au 2573   1.224   2.244   3.468
 1818  LAT   Au 2574   1.428   2.040   3.468
 1819  LAT   Au 2575   1.632   2.040   3.264
 1820  LAT   Au 2576   1.836   2.244   3.264
 1821  LAT   Au 2577   1.632   2.244   3.468
 1822  LAT   Au 2578   1.836   2.040   3.468
 1823  LAT   Au 2579   2.040   2.040   3.264
 1824  LAT   Au 2580   2.244   2.244   3.264
 1825  LAT   Au 2581   2.040   2.244   3.468
 1826  LAT   Au 2582   2.244   2.040   3.468
 1827  LAT   Au 2583   2.448   2.040   3.264
 1828  LAT   Au 2584   2.652   2.244   3.264
 1829  LAT   Au 2585   2.448   2.244   3.468
 1830  LAT   Au 2586   2.652   2.040   3.468
 1831  LAT   Au 2587   2.856   2.040   3.264
 1832  LAT   Au 2588   3.060   2.244   3.264
 1833  LAT   Au 2589   2.856   2.244   3.468
 1834  LAT   Au 2590   0.816   2.448   3.264
 1835  LAT   Au 2591   1.020   2.652   3.264
 1836  LAT   Au 2592   1.020   2.448   3.468
 1837  LAT   Au 2593   1.224   2.448   3.264
 1838  LAT   Au 2594   1.428   2.652   3.264
 1839  LAT   Au 2595   1.224   2.652   3.468
 1840  LAT   Au 2596   1.428   2.448   3.468
 1841  LAT   Au 2597   1.632   2.448   3.264
 1842  LAT   Au 2598   1.836   2.652   3.264
 1843  LAT   Au 2599   1.632   2.652   3.468
 1844  LAT   Au 2600   1.836   2.448   3.468
 1845  LAT   Au 2601   2.040   2.448   3.264
 1846  LAT   Au 2602   2.244   2.652   3.264
 1847  LAT   Au 2603   2.040   2.652   3.468
 1848  LAT   Au 2604   2.244   2.448   3.468
 1849  LAT   Au 2605   2.448   2.448   3.264
 1850  LAT   Au 2606   2.652   2.652   3.264
 1851  LAT   Au 2607   2.448   2.652   3.468
 1852  LAT   Au 2608   2.652   2.448   3.468
 1853  LAT   Au 2609   2.856   2.448   3.264
 1854  LAT   Au 2610   1.224   2.856   3.264
 1855  LAT   Au 2611   1.428   3.060   3.264
 1856  LAT   Au 2612   1.428   2.856   3.468
 1857  LAT   Au 2613   1.632   2.856   3.264
 1858  LAT   Au 2614   1.836   3.060   3.264
 1859  LAT   Au 2615   1.836   2.856   3.468
 1860  LAT   Au 2616   2.040   2.856   3.264
 1861  LAT   Au 2617   2.244   3.060   3.264
 1862  LAT   Au 2618   2.244   2.856   3.468
 1863  LAT   Au 2619   2.448   2.856   3.264
  10.00000  10.00000  10.00000
