[ moleculetype ]
polyGraft            1

[ atoms ]
1 CM2 1 PE C1 1 0.000
2 CM2 1 PE C2 1 0.000
3 CM2 1 PE C3 1 0.000
4 CM2 1 PE C4 1 0.000
5 CM2 1 PE C5 1 0.000
6 CM2 1 PE C6 1 0.000
7 SN4e 1 PEO EO1 1 0.000
8 SN4e 1 PEO EO2 1 0.000
9 SN4e 1 PEO EO3 1 0.000
10 SN4e 1 PEO EO4 1 0.000
11 SN4e 1 PEO EO5 1 0.000
12 SN4e 1 PEO EO6 1 0.000
13 CM2 1 PE C1 1 0.000
14 CM2 1 PE C2 1 0.000
15 CM2 1 PE C3 1 0.000
16 CM2 1 PE C4 1 0.000
17 CM2 1 PE C5 1 0.000
18 CM2 1 PE C6 1 0.000
19 SN4e 1 PEO EO1 1 0.000
20 SN4e 1 PEO EO2 1 0.000
21 SN4e 1 PEO EO3 1 0.000
22 SN4e 1 PEO EO4 1 0.000
23 SN4e 1 PEO EO5 1 0.000
24 SN4e 1 PEO EO6 1 0.000
25 SN4e 1 PEO EO1 1 0.000
26 SN4e 1 PEO EO2 1 0.000
27 SN4e 1 PEO EO3 1 0.000
28 SN4e 1 PEO EO4 1 0.000
29 SN4e 1 PEO EO5 1 0.000
30 SN4e 1 PEO EO6 1 0.000
31 CM2 1 PE C1 1 0.000
32 CM2 1 PE C2 1 0.000
33 CM2 1 PE C3 1 0.000
34 CM2 1 PE C4 1 0.000
35 CM2 1 PE C5 1 0.000
36 CM2 1 PE C6 1 0.000
37 SN4e 1 PEO EO1 1 0.000
38 SN4e 1 PEO EO2 1 0.000
39 SN4e 1 PEO EO3 1 0.000
40 SN4e 1 PEO EO4 1 0.000
41 SN4e 1 PEO EO5 1 0.000
42 SN4e 1 PEO EO6 1 0.000
43 CM2 1 PE C1 1 0.000
44 CM2 1 PE C2 1 0.000
45 CM2 1 PE C3 1 0.000
46 CM2 1 PE C4 1 0.000
47 CM2 1 PE C5 1 0.000
48 CM2 1 PE C6 1 0.000
49 SN4e 1 PEO EO1 1 0.000
50 SN4e 1 PEO EO2 1 0.000
51 SN4e 1 PEO EO3 1 0.000
52 SN4e 1 PEO EO4 1 0.000
53 SN4e 1 PEO EO5 1 0.000
54 SN4e 1 PEO EO6 1 0.000
55 CM2 1 PE C1 1 0.000
56 CM2 1 PE C2 1 0.000
57 CM2 1 PE C3 1 0.000
58 CM2 1 PE C4 1 0.000
59 CM2 1 PE C5 1 0.000
60 CM2 1 PE C6 1 0.000
61 CM2 1 PE C1 1 0.000
62 CM2 1 PE C2 1 0.000
63 CM2 1 PE C3 1 0.000
64 CM2 1 PE C4 1 0.000
65 CM2 1 PE C5 1 0.000
66 CM2 1 PE C6 1 0.000
67 CM2 1 PE C1 1 0.000
68 CM2 1 PE C2 1 0.000
69 CM2 1 PE C3 1 0.000
70 CM2 1 PE C4 1 0.000
71 CM2 1 PE C5 1 0.000
72 CM2 1 PE C6 1 0.000
73 SN4e 1 PEO EO1 1 0.000
74 SN4e 1 PEO EO2 1 0.000
75 SN4e 1 PEO EO3 1 0.000
76 SN4e 1 PEO EO4 1 0.000
77 SN4e 1 PEO EO5 1 0.000
78 SN4e 1 PEO EO6 1 0.000
79 CM2 1 PE C1 1 0.000
80 CM2 1 PE C2 1 0.000
81 CM2 1 PE C3 1 0.000
82 CM2 1 PE C4 1 0.000
83 CM2 1 PE C5 1 0.000
84 CM2 1 PE C6 1 0.000
85 SN4e 1 PEO EO1 1 0.000
86 SN4e 1 PEO EO2 1 0.000
87 SN4e 1 PEO EO3 1 0.000
88 SN4e 1 PEO EO4 1 0.000
89 SN4e 1 PEO EO5 1 0.000
90 SN4e 1 PEO EO6 1 0.000
91 SN4e 1 PEO EO1 1 0.000
92 SN4e 1 PEO EO2 1 0.000
93 SN4e 1 PEO EO3 1 0.000
94 SN4e 1 PEO EO4 1 0.000
95 SN4e 1 PEO EO5 1 0.000
96 SN4e 1 PEO EO6 1 0.000
97 SN4e 1 PEO EO1 1 0.000
98 SN4e 1 PEO EO2 1 0.000
99 SN4e 1 PEO EO3 1 0.000
100 SN4e 1 PEO EO4 1 0.000
101 SN4e 1 PEO EO5 1 0.000
102 SN4e 1 PEO EO6 1 0.000
103 CM2 1 PE C1 1 0.000
104 CM2 1 PE C2 1 0.000
105 CM2 1 PE C3 1 0.000
106 CM2 1 PE C4 1 0.000
107 CM2 1 PE C5 1 0.000
108 CM2 1 PE C6 1 0.000
109 SN4e 1 PEO EO1 1 0.000
110 SN4e 1 PEO EO2 1 0.000
111 SN4e 1 PEO EO3 1 0.000
112 SN4e 1 PEO EO4 1 0.000
113 SN4e 1 PEO EO5 1 0.000
114 SN4e 1 PEO EO6 1 0.000
115 SN4e 1 PEO EO1 1 0.000
116 SN4e 1 PEO EO2 1 0.000
117 SN4e 1 PEO EO3 1 0.000
118 SN4e 1 PEO EO4 1 0.000
119 SN4e 1 PEO EO5 1 0.000
120 SN4e 1 PEO EO6 1 0.000
121 CM2 1 PE C1 1 0.000
122 CM2 1 PE C2 1 0.000
123 CM2 1 PE C3 1 0.000
124 CM2 1 PE C4 1 0.000
125 CM2 1 PE C5 1 0.000
126 CM2 1 PE C6 1 0.000
127 SN4e 1 PEO EO1 1 0.000
128 SN4e 1 PEO EO2 1 0.000
129 SN4e 1 PEO EO3 1 0.000
130 SN4e 1 PEO EO4 1 0.000
131 SN4e 1 PEO EO5 1 0.000
132 SN4e 1 PEO EO6 1 0.000
133 CM2 1 PE C1 1 0.000
134 CM2 1 PE C2 1 0.000
135 CM2 1 PE C3 1 0.000
136 CM2 1 PE C4 1 0.000
137 CM2 1 PE C5 1 0.000
138 CM2 1 PE C6 1 0.000
139 CM2 1 PE C1 1 0.000
140 CM2 1 PE C2 1 0.000
141 CM2 1 PE C3 1 0.000
142 CM2 1 PE C4 1 0.000
143 CM2 1 PE C5 1 0.000
144 CM2 1 PE C6 1 0.000
145 CM2 1 PE C1 1 0.000
146 CM2 1 PE C2 1 0.000
147 CM2 1 PE C3 1 0.000
148 CM2 1 PE C4 1 0.000
149 CM2 1 PE C5 1 0.000
150 CM2 1 PE C6 1 0.000
151 CM2 1 PE C1 1 0.000
152 CM2 1 PE C2 1 0.000
153 CM2 1 PE C3 1 0.000
154 CM2 1 PE C4 1 0.000
155 CM2 1 PE C5 1 0.000
156 CM2 1 PE C6 1 0.000
157 CM2 1 PE C1 1 0.000
158 CM2 1 PE C2 1 0.000
159 CM2 1 PE C3 1 0.000
160 CM2 1 PE C4 1 0.000
161 CM2 1 PE C5 1 0.000
162 CM2 1 PE C6 1 0.000
163 CM2 1 PE C1 1 0.000
164 CM2 1 PE C2 1 0.000
165 CM2 1 PE C3 1 0.000
166 CM2 1 PE C4 1 0.000
167 CM2 1 PE C5 1 0.000
168 CM2 1 PE C6 1 0.000
169 CM2 1 PE C1 1 0.000
170 CM2 1 PE C2 1 0.000
171 CM2 1 PE C3 1 0.000
172 CM2 1 PE C4 1 0.000
173 CM2 1 PE C5 1 0.000
174 CM2 1 PE C6 1 0.000
175 CM2 1 PE C1 1 0.000
176 CM2 1 PE C2 1 0.000
177 CM2 1 PE C3 1 0.000
178 CM2 1 PE C4 1 0.000
179 CM2 1 PE C5 1 0.000
180 CM2 1 PE C6 1 0.000
181 CM2 1 PE C1 1 0.000
182 CM2 1 PE C2 1 0.000
183 CM2 1 PE C3 1 0.000
184 CM2 1 PE C4 1 0.000
185 CM2 1 PE C5 1 0.000
186 CM2 1 PE C6 1 0.000
187 CM2 1 PE C1 1 0.000
188 CM2 1 PE C2 1 0.000
189 CM2 1 PE C3 1 0.000
190 CM2 1 PE C4 1 0.000
191 CM2 1 PE C5 1 0.000
192 CM2 1 PE C6 1 0.000
193 SN4e 1 PEO EO1 1 0.000
194 SN4e 1 PEO EO2 1 0.000
195 SN4e 1 PEO EO3 1 0.000
196 SN4e 1 PEO EO4 1 0.000
197 SN4e 1 PEO EO5 1 0.000
198 SN4e 1 PEO EO6 1 0.000
199 CM2 1 PE C1 1 0.000
200 CM2 1 PE C2 1 0.000
201 CM2 1 PE C3 1 0.000
202 CM2 1 PE C4 1 0.000
203 CM2 1 PE C5 1 0.000
204 CM2 1 PE C6 1 0.000
205 CM2 1 PE C1 1 0.000
206 CM2 1 PE C2 1 0.000
207 CM2 1 PE C3 1 0.000
208 CM2 1 PE C4 1 0.000
209 CM2 1 PE C5 1 0.000
210 CM2 1 PE C6 1 0.000
211 CM2 1 PE C1 1 0.000
212 CM2 1 PE C2 1 0.000
213 CM2 1 PE C3 1 0.000
214 CM2 1 PE C4 1 0.000
215 CM2 1 PE C5 1 0.000
216 CM2 1 PE C6 1 0.000
217 CM2 1 PE C1 1 0.000
218 CM2 1 PE C2 1 0.000
219 CM2 1 PE C3 1 0.000
220 CM2 1 PE C4 1 0.000
221 CM2 1 PE C5 1 0.000
222 CM2 1 PE C6 1 0.000
223 CM2 1 PE C1 1 0.000
224 CM2 1 PE C2 1 0.000
225 CM2 1 PE C3 1 0.000
226 CM2 1 PE C4 1 0.000
227 CM2 1 PE C5 1 0.000
228 CM2 1 PE C6 1 0.000
229 CM2 1 PE C1 1 0.000
230 CM2 1 PE C2 1 0.000
231 CM2 1 PE C3 1 0.000
232 CM2 1 PE C4 1 0.000
233 CM2 1 PE C5 1 0.000
234 CM2 1 PE C6 1 0.000
235 CM2 1 PE C1 1 0.000
236 CM2 1 PE C2 1 0.000
237 CM2 1 PE C3 1 0.000
238 CM2 1 PE C4 1 0.000
239 CM2 1 PE C5 1 0.000
240 CM2 1 PE C6 1 0.000
241 SN4e 1 PEO EO1 1 0.000
242 SN4e 1 PEO EO2 1 0.000
243 SN4e 1 PEO EO3 1 0.000
244 SN4e 1 PEO EO4 1 0.000
245 SN4e 1 PEO EO5 1 0.000
246 SN4e 1 PEO EO6 1 0.000
247 SN4e 1 PEO EO1 1 0.000
248 SN4e 1 PEO EO2 1 0.000
249 SN4e 1 PEO EO3 1 0.000
250 SN4e 1 PEO EO4 1 0.000
251 SN4e 1 PEO EO5 1 0.000
252 SN4e 1 PEO EO6 1 0.000
253 SN4e 1 PEO EO1 1 0.000
254 SN4e 1 PEO EO2 1 0.000
255 SN4e 1 PEO EO3 1 0.000
256 SN4e 1 PEO EO4 1 0.000
257 SN4e 1 PEO EO5 1 0.000
258 SN4e 1 PEO EO6 1 0.000
259 CM2 1 PE C1 1 0.000
260 CM2 1 PE C2 1 0.000
261 CM2 1 PE C3 1 0.000
262 CM2 1 PE C4 1 0.000
263 CM2 1 PE C5 1 0.000
264 CM2 1 PE C6 1 0.000
265 CM2 1 PE C1 1 0.000
266 CM2 1 PE C2 1 0.000
267 CM2 1 PE C3 1 0.000
268 CM2 1 PE C4 1 0.000
269 CM2 1 PE C5 1 0.000
270 CM2 1 PE C6 1 0.000
271 SN4e 1 PEO EO1 1 0.000
272 SN4e 1 PEO EO2 1 0.000
273 SN4e 1 PEO EO3 1 0.000
274 SN4e 1 PEO EO4 1 0.000
275 SN4e 1 PEO EO5 1 0.000
276 SN4e 1 PEO EO6 1 0.000
277 SN4e 1 PEO EO1 1 0.000
278 SN4e 1 PEO EO2 1 0.000
279 SN4e 1 PEO EO3 1 0.000
280 SN4e 1 PEO EO4 1 0.000
281 SN4e 1 PEO EO5 1 0.000
282 SN4e 1 PEO EO6 1 0.000
283 SN4e 1 PEO EO1 1 0.000
284 SN4e 1 PEO EO2 1 0.000
285 SN4e 1 PEO EO3 1 0.000
286 SN4e 1 PEO EO4 1 0.000
287 SN4e 1 PEO EO5 1 0.000
288 SN4e 1 PEO EO6 1 0.000
289 SN4e 1 PEO EO1 1 0.000
290 SN4e 1 PEO EO2 1 0.000
291 SN4e 1 PEO EO3 1 0.000
292 SN4e 1 PEO EO4 1 0.000
293 SN4e 1 PEO EO5 1 0.000
294 SN4e 1 PEO EO6 1 0.000
295 SN4e 1 PEO EO1 1 0.000
296 SN4e 1 PEO EO2 1 0.000
297 SN4e 1 PEO EO3 1 0.000
298 SN4e 1 PEO EO4 1 0.000
299 SN4e 1 PEO EO5 1 0.000
300 SN4e 1 PEO EO6 1 0.000
301 SN4e 1 PEO EO1 1 0.000
302 SN4e 1 PEO EO2 1 0.000
303 SN4e 1 PEO EO3 1 0.000
304 SN4e 1 PEO EO4 1 0.000
305 SN4e 1 PEO EO5 1 0.000
306 SN4e 1 PEO EO6 1 0.000
307 SN4e 1 PEO EO1 1 0.000
308 SN4e 1 PEO EO2 1 0.000
309 SN4e 1 PEO EO3 1 0.000
310 SN4e 1 PEO EO4 1 0.000
311 SN4e 1 PEO EO5 1 0.000
312 SN4e 1 PEO EO6 1 0.000
313 CM2 1 PE C1 1 0.000
314 CM2 1 PE C2 1 0.000
315 CM2 1 PE C3 1 0.000
316 CM2 1 PE C4 1 0.000
317 CM2 1 PE C5 1 0.000
318 CM2 1 PE C6 1 0.000
319 SN4e 1 PEO EO1 1 0.000
320 SN4e 1 PEO EO2 1 0.000
321 SN4e 1 PEO EO3 1 0.000
322 SN4e 1 PEO EO4 1 0.000
323 SN4e 1 PEO EO5 1 0.000
324 SN4e 1 PEO EO6 1 0.000
325 CM2 1 PE C1 1 0.000
326 CM2 1 PE C2 1 0.000
327 CM2 1 PE C3 1 0.000
328 CM2 1 PE C4 1 0.000
329 CM2 1 PE C5 1 0.000
330 CM2 1 PE C6 1 0.000
331 SN4e 1 PEO EO1 1 0.000
332 SN4e 1 PEO EO2 1 0.000
333 SN4e 1 PEO EO3 1 0.000
334 SN4e 1 PEO EO4 1 0.000
335 SN4e 1 PEO EO5 1 0.000
336 SN4e 1 PEO EO6 1 0.000
337 CM2 1 PE C1 1 0.000
338 CM2 1 PE C2 1 0.000
339 CM2 1 PE C3 1 0.000
340 CM2 1 PE C4 1 0.000
341 CM2 1 PE C5 1 0.000
342 CM2 1 PE C6 1 0.000
343 CM2 1 PE C1 1 0.000
344 CM2 1 PE C2 1 0.000
345 CM2 1 PE C3 1 0.000
346 CM2 1 PE C4 1 0.000
347 CM2 1 PE C5 1 0.000
348 CM2 1 PE C6 1 0.000
349 SN4e 1 PEO EO1 1 0.000
350 SN4e 1 PEO EO2 1 0.000
351 SN4e 1 PEO EO3 1 0.000
352 SN4e 1 PEO EO4 1 0.000
353 SN4e 1 PEO EO5 1 0.000
354 SN4e 1 PEO EO6 1 0.000
355 SN4e 1 PEO EO1 1 0.000
356 SN4e 1 PEO EO2 1 0.000
357 SN4e 1 PEO EO3 1 0.000
358 SN4e 1 PEO EO4 1 0.000
359 SN4e 1 PEO EO5 1 0.000
360 SN4e 1 PEO EO6 1 0.000
361 SN4e 1 PEO EO1 1 0.000
362 SN4e 1 PEO EO2 1 0.000
363 SN4e 1 PEO EO3 1 0.000
364 SN4e 1 PEO EO4 1 0.000
365 SN4e 1 PEO EO5 1 0.000
366 SN4e 1 PEO EO6 1 0.000
367 SN4e 1 PEO EO1 1 0.000
368 SN4e 1 PEO EO2 1 0.000
369 SN4e 1 PEO EO3 1 0.000
370 SN4e 1 PEO EO4 1 0.000
371 SN4e 1 PEO EO5 1 0.000
372 SN4e 1 PEO EO6 1 0.000
373 CM2 1 PE C1 1 0.000
374 CM2 1 PE C2 1 0.000
375 CM2 1 PE C3 1 0.000
376 CM2 1 PE C4 1 0.000
377 CM2 1 PE C5 1 0.000
378 CM2 1 PE C6 1 0.000
379 CM2 1 PE C1 1 0.000
380 CM2 1 PE C2 1 0.000
381 CM2 1 PE C3 1 0.000
382 CM2 1 PE C4 1 0.000
383 CM2 1 PE C5 1 0.000
384 CM2 1 PE C6 1 0.000
385 SN4e 1 PEO EO1 1 0.000
386 SN4e 1 PEO EO2 1 0.000
387 SN4e 1 PEO EO3 1 0.000
388 SN4e 1 PEO EO4 1 0.000
389 SN4e 1 PEO EO5 1 0.000
390 SN4e 1 PEO EO6 1 0.000
391 CM2 1 PE C1 1 0.000
392 CM2 1 PE C2 1 0.000
393 CM2 1 PE C3 1 0.000
394 CM2 1 PE C4 1 0.000
395 CM2 1 PE C5 1 0.000
396 CM2 1 PE C6 1 0.000
397 CM2 1 PE C1 1 0.000
398 CM2 1 PE C2 1 0.000
399 CM2 1 PE C3 1 0.000
400 CM2 1 PE C4 1 0.000
401 CM2 1 PE C5 1 0.000
402 CM2 1 PE C6 1 0.000
403 SN4e 1 PEO EO1 1 0.000
404 SN4e 1 PEO EO2 1 0.000
405 SN4e 1 PEO EO3 1 0.000
406 SN4e 1 PEO EO4 1 0.000
407 SN4e 1 PEO EO5 1 0.000
408 SN4e 1 PEO EO6 1 0.000
409 CM2 1 PE C1 1 0.000
410 CM2 1 PE C2 1 0.000
411 CM2 1 PE C3 1 0.000
412 CM2 1 PE C4 1 0.000
413 CM2 1 PE C5 1 0.000
414 CM2 1 PE C6 1 0.000
415 SN4e 1 PEO EO1 1 0.000
416 SN4e 1 PEO EO2 1 0.000
417 SN4e 1 PEO EO3 1 0.000
418 SN4e 1 PEO EO4 1 0.000
419 SN4e 1 PEO EO5 1 0.000
420 SN4e 1 PEO EO6 1 0.000
421 SN4e 1 PEO EO1 1 0.000
422 SN4e 1 PEO EO2 1 0.000
423 SN4e 1 PEO EO3 1 0.000
424 SN4e 1 PEO EO4 1 0.000
425 SN4e 1 PEO EO5 1 0.000
426 SN4e 1 PEO EO6 1 0.000
427 SN4e 1 PEO EO1 1 0.000
428 SN4e 1 PEO EO2 1 0.000
429 SN4e 1 PEO EO3 1 0.000
430 SN4e 1 PEO EO4 1 0.000
431 SN4e 1 PEO EO5 1 0.000
432 SN4e 1 PEO EO6 1 0.000
433 SN4e 1 PEO EO1 1 0.000
434 SN4e 1 PEO EO2 1 0.000
435 SN4e 1 PEO EO3 1 0.000
436 SN4e 1 PEO EO4 1 0.000
437 SN4e 1 PEO EO5 1 0.000
438 SN4e 1 PEO EO6 1 0.000
439 CM2 1 PE C1 1 0.000
440 CM2 1 PE C2 1 0.000
441 CM2 1 PE C3 1 0.000
442 CM2 1 PE C4 1 0.000
443 CM2 1 PE C5 1 0.000
444 CM2 1 PE C6 1 0.000
445 CM2 1 PE C1 1 0.000
446 CM2 1 PE C2 1 0.000
447 CM2 1 PE C3 1 0.000
448 CM2 1 PE C4 1 0.000
449 CM2 1 PE C5 1 0.000
450 CM2 1 PE C6 1 0.000
451 SN4e 1 PEO EO1 1 0.000
452 SN4e 1 PEO EO2 1 0.000
453 SN4e 1 PEO EO3 1 0.000
454 SN4e 1 PEO EO4 1 0.000
455 SN4e 1 PEO EO5 1 0.000
456 SN4e 1 PEO EO6 1 0.000
457 CM2 1 PE C1 1 0.000
458 CM2 1 PE C2 1 0.000
459 CM2 1 PE C3 1 0.000
460 CM2 1 PE C4 1 0.000
461 CM2 1 PE C5 1 0.000
462 CM2 1 PE C6 1 0.000
463 SN4e 1 PEO EO1 1 0.000
464 SN4e 1 PEO EO2 1 0.000
465 SN4e 1 PEO EO3 1 0.000
466 SN4e 1 PEO EO4 1 0.000
467 SN4e 1 PEO EO5 1 0.000
468 SN4e 1 PEO EO6 1 0.000
469 SN4e 1 PEO EO1 1 0.000
470 SN4e 1 PEO EO2 1 0.000
471 SN4e 1 PEO EO3 1 0.000
472 SN4e 1 PEO EO4 1 0.000
473 SN4e 1 PEO EO5 1 0.000
474 SN4e 1 PEO EO6 1 0.000
475 CM2 1 PE C1 1 0.000
476 CM2 1 PE C2 1 0.000
477 CM2 1 PE C3 1 0.000
478 CM2 1 PE C4 1 0.000
479 CM2 1 PE C5 1 0.000
480 CM2 1 PE C6 1 0.000
481 CM2 1 PE C1 1 0.000
482 CM2 1 PE C2 1 0.000
483 CM2 1 PE C3 1 0.000
484 CM2 1 PE C4 1 0.000
485 CM2 1 PE C5 1 0.000
486 CM2 1 PE C6 1 0.000
487 SN4e 1 PEO EO1 1 0.000
488 SN4e 1 PEO EO2 1 0.000
489 SN4e 1 PEO EO3 1 0.000
490 SN4e 1 PEO EO4 1 0.000
491 SN4e 1 PEO EO5 1 0.000
492 SN4e 1 PEO EO6 1 0.000
493 CM2 1 PE C1 1 0.000
494 CM2 1 PE C2 1 0.000
495 CM2 1 PE C3 1 0.000
496 CM2 1 PE C4 1 0.000
497 CM2 1 PE C5 1 0.000
498 CM2 1 PE C6 1 0.000
499 CM2 1 PE C1 1 0.000
500 CM2 1 PE C2 1 0.000
501 CM2 1 PE C3 1 0.000
502 CM2 1 PE C4 1 0.000
503 CM2 1 PE C5 1 0.000
504 CM2 1 PE C6 1 0.000
505 SN4e 1 PEO EO1 1 0.000
506 SN4e 1 PEO EO2 1 0.000
507 SN4e 1 PEO EO3 1 0.000
508 SN4e 1 PEO EO4 1 0.000
509 SN4e 1 PEO EO5 1 0.000
510 SN4e 1 PEO EO6 1 0.000
511 CM2 1 PE C1 1 0.000
512 CM2 1 PE C2 1 0.000
513 CM2 1 PE C3 1 0.000
514 CM2 1 PE C4 1 0.000
515 CM2 1 PE C5 1 0.000
516 CM2 1 PE C6 1 0.000
517 CM2 1 PE C1 1 0.000
518 CM2 1 PE C2 1 0.000
519 CM2 1 PE C3 1 0.000
520 CM2 1 PE C4 1 0.000
521 CM2 1 PE C5 1 0.000
522 CM2 1 PE C6 1 0.000
523 CM2 1 PE C1 1 0.000
524 CM2 1 PE C2 1 0.000
525 CM2 1 PE C3 1 0.000
526 CM2 1 PE C4 1 0.000
527 CM2 1 PE C5 1 0.000
528 CM2 1 PE C6 1 0.000
529 CM2 1 PE C1 1 0.000
530 CM2 1 PE C2 1 0.000
531 CM2 1 PE C3 1 0.000
532 CM2 1 PE C4 1 0.000
533 CM2 1 PE C5 1 0.000
534 CM2 1 PE C6 1 0.000
535 CM2 1 PE C1 1 0.000
536 CM2 1 PE C2 1 0.000
537 CM2 1 PE C3 1 0.000
538 CM2 1 PE C4 1 0.000
539 CM2 1 PE C5 1 0.000
540 CM2 1 PE C6 1 0.000
541 CM2 1 PE C1 1 0.000
542 CM2 1 PE C2 1 0.000
543 CM2 1 PE C3 1 0.000
544 CM2 1 PE C4 1 0.000
545 CM2 1 PE C5 1 0.000
546 CM2 1 PE C6 1 0.000
547 CM2 1 PE C1 1 0.000
548 CM2 1 PE C2 1 0.000
549 CM2 1 PE C3 1 0.000
550 CM2 1 PE C4 1 0.000
551 CM2 1 PE C5 1 0.000
552 CM2 1 PE C6 1 0.000
553 CM2 1 PE C1 1 0.000
554 CM2 1 PE C2 1 0.000
555 CM2 1 PE C3 1 0.000
556 CM2 1 PE C4 1 0.000
557 CM2 1 PE C5 1 0.000
558 CM2 1 PE C6 1 0.000
559 SN4e 1 PEO EO1 1 0.000
560 SN4e 1 PEO EO2 1 0.000
561 SN4e 1 PEO EO3 1 0.000
562 SN4e 1 PEO EO4 1 0.000
563 SN4e 1 PEO EO5 1 0.000
564 SN4e 1 PEO EO6 1 0.000
565 CM2 1 PE C1 1 0.000
566 CM2 1 PE C2 1 0.000
567 CM2 1 PE C3 1 0.000
568 CM2 1 PE C4 1 0.000
569 CM2 1 PE C5 1 0.000
570 CM2 1 PE C6 1 0.000
571 CM2 1 PE C1 1 0.000
572 CM2 1 PE C2 1 0.000
573 CM2 1 PE C3 1 0.000
574 CM2 1 PE C4 1 0.000
575 CM2 1 PE C5 1 0.000
576 CM2 1 PE C6 1 0.000
577 CM2 1 PE C1 1 0.000
578 CM2 1 PE C2 1 0.000
579 CM2 1 PE C3 1 0.000
580 CM2 1 PE C4 1 0.000
581 CM2 1 PE C5 1 0.000
582 CM2 1 PE C6 1 0.000
583 SN4e 1 PEO EO1 1 0.000
584 SN4e 1 PEO EO2 1 0.000
585 SN4e 1 PEO EO3 1 0.000
586 SN4e 1 PEO EO4 1 0.000
587 SN4e 1 PEO EO5 1 0.000
588 SN4e 1 PEO EO6 1 0.000
589 CM2 1 PE C1 1 0.000
590 CM2 1 PE C2 1 0.000
591 CM2 1 PE C3 1 0.000
592 CM2 1 PE C4 1 0.000
593 CM2 1 PE C5 1 0.000
594 CM2 1 PE C6 1 0.000
595 SN4e 1 PEO EO1 1 0.000
596 SN4e 1 PEO EO2 1 0.000
597 SN4e 1 PEO EO3 1 0.000
598 SN4e 1 PEO EO4 1 0.000
599 SN4e 1 PEO EO5 1 0.000
600 SN4e 1 PEO EO6 1 0.000
601 CM2 1 PE C1 1 0.000
602 CM2 1 PE C2 1 0.000
603 CM2 1 PE C3 1 0.000
604 CM2 1 PE C4 1 0.000
605 CM2 1 PE C5 1 0.000
606 CM2 1 PE C6 1 0.000
607 CM2 1 PE C1 1 0.000
608 CM2 1 PE C2 1 0.000
609 CM2 1 PE C3 1 0.000
610 CM2 1 PE C4 1 0.000
611 CM2 1 PE C5 1 0.000
612 CM2 1 PE C6 1 0.000
613 SN4e 1 PEO EO1 1 0.000
614 SN4e 1 PEO EO2 1 0.000
615 SN4e 1 PEO EO3 1 0.000
616 SN4e 1 PEO EO4 1 0.000
617 SN4e 1 PEO EO5 1 0.000
618 SN4e 1 PEO EO6 1 0.000
619 CM2 1 PE C1 1 0.000
620 CM2 1 PE C2 1 0.000
621 CM2 1 PE C3 1 0.000
622 CM2 1 PE C4 1 0.000
623 CM2 1 PE C5 1 0.000
624 CM2 1 PE C6 1 0.000
625 CM2 1 PE C1 1 0.000
626 CM2 1 PE C2 1 0.000
627 CM2 1 PE C3 1 0.000
628 CM2 1 PE C4 1 0.000
629 CM2 1 PE C5 1 0.000
630 CM2 1 PE C6 1 0.000
631 CM2 1 PE C1 1 0.000
632 CM2 1 PE C2 1 0.000
633 CM2 1 PE C3 1 0.000
634 CM2 1 PE C4 1 0.000
635 CM2 1 PE C5 1 0.000
636 CM2 1 PE C6 1 0.000
637 CM2 1 PE C1 1 0.000
638 CM2 1 PE C2 1 0.000
639 CM2 1 PE C3 1 0.000
640 CM2 1 PE C4 1 0.000
641 CM2 1 PE C5 1 0.000
642 CM2 1 PE C6 1 0.000
643 CM2 1 PE C1 1 0.000
644 CM2 1 PE C2 1 0.000
645 CM2 1 PE C3 1 0.000
646 CM2 1 PE C4 1 0.000
647 CM2 1 PE C5 1 0.000
648 CM2 1 PE C6 1 0.000
649 SN4e 1 PEO EO1 1 0.000
650 SN4e 1 PEO EO2 1 0.000
651 SN4e 1 PEO EO3 1 0.000
652 SN4e 1 PEO EO4 1 0.000
653 SN4e 1 PEO EO5 1 0.000
654 SN4e 1 PEO EO6 1 0.000
655 CM2 1 PE C1 1 0.000
656 CM2 1 PE C2 1 0.000
657 CM2 1 PE C3 1 0.000
658 CM2 1 PE C4 1 0.000
659 CM2 1 PE C5 1 0.000
660 CM2 1 PE C6 1 0.000
661 CM2 1 PE C1 1 0.000
662 CM2 1 PE C2 1 0.000
663 CM2 1 PE C3 1 0.000
664 CM2 1 PE C4 1 0.000
665 CM2 1 PE C5 1 0.000
666 CM2 1 PE C6 1 0.000
667 CM2 1 PE C1 1 0.000
668 CM2 1 PE C2 1 0.000
669 CM2 1 PE C3 1 0.000
670 CM2 1 PE C4 1 0.000
671 CM2 1 PE C5 1 0.000
672 CM2 1 PE C6 1 0.000
673 CM2 1 PE C1 1 0.000
674 CM2 1 PE C2 1 0.000
675 CM2 1 PE C3 1 0.000
676 CM2 1 PE C4 1 0.000
677 CM2 1 PE C5 1 0.000
678 CM2 1 PE C6 1 0.000
679 SN4e 1 PEO EO1 1 0.000
680 SN4e 1 PEO EO2 1 0.000
681 SN4e 1 PEO EO3 1 0.000
682 SN4e 1 PEO EO4 1 0.000
683 SN4e 1 PEO EO5 1 0.000
684 SN4e 1 PEO EO6 1 0.000
685 SN4e 1 PEO EO1 1 0.000
686 SN4e 1 PEO EO2 1 0.000
687 SN4e 1 PEO EO3 1 0.000
688 SN4e 1 PEO EO4 1 0.000
689 SN4e 1 PEO EO5 1 0.000
690 SN4e 1 PEO EO6 1 0.000
691 SN4e 1 PEO EO1 1 0.000
692 SN4e 1 PEO EO2 1 0.000
693 SN4e 1 PEO EO3 1 0.000
694 SN4e 1 PEO EO4 1 0.000
695 SN4e 1 PEO EO5 1 0.000
696 SN4e 1 PEO EO6 1 0.000
697 CM2 1 PE C1 1 0.000
698 CM2 1 PE C2 1 0.000
699 CM2 1 PE C3 1 0.000
700 CM2 1 PE C4 1 0.000
701 CM2 1 PE C5 1 0.000
702 CM2 1 PE C6 1 0.000
703 SN4e 1 PEO EO1 1 0.000
704 SN4e 1 PEO EO2 1 0.000
705 SN4e 1 PEO EO3 1 0.000
706 SN4e 1 PEO EO4 1 0.000
707 SN4e 1 PEO EO5 1 0.000
708 SN4e 1 PEO EO6 1 0.000
709 CM2 1 PE C1 1 0.000
710 CM2 1 PE C2 1 0.000
711 CM2 1 PE C3 1 0.000
712 CM2 1 PE C4 1 0.000
713 CM2 1 PE C5 1 0.000
714 CM2 1 PE C6 1 0.000
715 CM2 1 PE C1 1 0.000
716 CM2 1 PE C2 1 0.000
717 CM2 1 PE C3 1 0.000
718 CM2 1 PE C4 1 0.000
719 CM2 1 PE C5 1 0.000
720 CM2 1 PE C6 1 0.000
721 CM2 1 PE C1 1 0.000
722 CM2 1 PE C2 1 0.000
723 CM2 1 PE C3 1 0.000
724 CM2 1 PE C4 1 0.000
725 CM2 1 PE C5 1 0.000
726 CM2 1 PE C6 1 0.000
727 CM2 1 PE C1 1 0.000
728 CM2 1 PE C2 1 0.000
729 CM2 1 PE C3 1 0.000
730 CM2 1 PE C4 1 0.000
731 CM2 1 PE C5 1 0.000
732 CM2 1 PE C6 1 0.000
733 SN4e 1 PEO EO1 1 0.000
734 SN4e 1 PEO EO2 1 0.000
735 SN4e 1 PEO EO3 1 0.000
736 SN4e 1 PEO EO4 1 0.000
737 SN4e 1 PEO EO5 1 0.000
738 SN4e 1 PEO EO6 1 0.000
739 SN4e 1 PEO EO1 1 0.000
740 SN4e 1 PEO EO2 1 0.000
741 SN4e 1 PEO EO3 1 0.000
742 SN4e 1 PEO EO4 1 0.000
743 SN4e 1 PEO EO5 1 0.000
744 SN4e 1 PEO EO6 1 0.000
745 CM2 1 PE C1 1 0.000
746 CM2 1 PE C2 1 0.000
747 CM2 1 PE C3 1 0.000
748 CM2 1 PE C4 1 0.000
749 CM2 1 PE C5 1 0.000
750 CM2 1 PE C6 1 0.000
751 CM2 1 PE C1 1 0.000
752 CM2 1 PE C2 1 0.000
753 CM2 1 PE C3 1 0.000
754 CM2 1 PE C4 1 0.000
755 CM2 1 PE C5 1 0.000
756 CM2 1 PE C6 1 0.000
;sub
757 Au 0 LAT Au 0 0.000 196.96654
758 Au 0 LAT Au 0 0.000 196.96654
759 Au 0 LAT Au 0 0.000 196.96654
760 Au 0 LAT Au 0 0.000 196.96654
761 Au 0 LAT Au 0 0.000 196.96654
762 Au 0 LAT Au 0 0.000 196.96654
763 Au 0 LAT Au 0 0.000 196.96654
764 Au 0 LAT Au 0 0.000 196.96654
765 Au 0 LAT Au 0 0.000 196.96654
766 Au 0 LAT Au 0 0.000 196.96654
767 Au 0 LAT Au 0 0.000 196.96654
768 Au 0 LAT Au 0 0.000 196.96654
769 Au 0 LAT Au 0 0.000 196.96654
770 Au 0 LAT Au 0 0.000 196.96654
771 Au 0 LAT Au 0 0.000 196.96654
772 Au 0 LAT Au 0 0.000 196.96654
773 Au 0 LAT Au 0 0.000 196.96654
774 Au 0 LAT Au 0 0.000 196.96654
775 Au 0 LAT Au 0 0.000 196.96654
776 Au 0 LAT Au 0 0.000 196.96654
777 Au 0 LAT Au 0 0.000 196.96654
778 Au 0 LAT Au 0 0.000 196.96654
779 Au 0 LAT Au 0 0.000 196.96654
780 Au 0 LAT Au 0 0.000 196.96654
781 Au 0 LAT Au 0 0.000 196.96654
782 Au 0 LAT Au 0 0.000 196.96654
783 Au 0 LAT Au 0 0.000 196.96654
784 Au 0 LAT Au 0 0.000 196.96654
785 Au 0 LAT Au 0 0.000 196.96654
786 Au 0 LAT Au 0 0.000 196.96654
787 Au 0 LAT Au 0 0.000 196.96654
788 Au 0 LAT Au 0 0.000 196.96654
789 Au 0 LAT Au 0 0.000 196.96654
790 Au 0 LAT Au 0 0.000 196.96654
791 Au 0 LAT Au 0 0.000 196.96654
792 Au 0 LAT Au 0 0.000 196.96654
793 Au 0 LAT Au 0 0.000 196.96654
794 Au 0 LAT Au 0 0.000 196.96654
795 Au 0 LAT Au 0 0.000 196.96654
796 Au 0 LAT Au 0 0.000 196.96654
797 Au 0 LAT Au 0 0.000 196.96654
798 Au 0 LAT Au 0 0.000 196.96654
799 Au 0 LAT Au 0 0.000 196.96654
800 Au 0 LAT Au 0 0.000 196.96654
801 Au 0 LAT Au 0 0.000 196.96654
802 Au 0 LAT Au 0 0.000 196.96654
803 Au 0 LAT Au 0 0.000 196.96654
804 Au 0 LAT Au 0 0.000 196.96654
805 Au 0 LAT Au 0 0.000 196.96654
806 Au 0 LAT Au 0 0.000 196.96654
807 Au 0 LAT Au 0 0.000 196.96654
808 Au 0 LAT Au 0 0.000 196.96654
809 Au 0 LAT Au 0 0.000 196.96654
810 Au 0 LAT Au 0 0.000 196.96654
811 Au 0 LAT Au 0 0.000 196.96654
812 Au 0 LAT Au 0 0.000 196.96654
813 Au 0 LAT Au 0 0.000 196.96654
814 Au 0 LAT Au 0 0.000 196.96654
815 Au 0 LAT Au 0 0.000 196.96654
816 Au 0 LAT Au 0 0.000 196.96654
817 Au 0 LAT Au 0 0.000 196.96654
818 Au 0 LAT Au 0 0.000 196.96654
819 Au 0 LAT Au 0 0.000 196.96654
820 Au 0 LAT Au 0 0.000 196.96654
821 Au 0 LAT Au 0 0.000 196.96654
822 Au 0 LAT Au 0 0.000 196.96654
823 Au 0 LAT Au 0 0.000 196.96654
824 Au 0 LAT Au 0 0.000 196.96654
825 Au 0 LAT Au 0 0.000 196.96654
826 Au 0 LAT Au 0 0.000 196.96654
827 Au 0 LAT Au 0 0.000 196.96654
828 Au 0 LAT Au 0 0.000 196.96654
829 Au 0 LAT Au 0 0.000 196.96654
830 Au 0 LAT Au 0 0.000 196.96654
831 Au 0 LAT Au 0 0.000 196.96654
832 Au 0 LAT Au 0 0.000 196.96654
833 Au 0 LAT Au 0 0.000 196.96654
834 Au 0 LAT Au 0 0.000 196.96654
835 Au 0 LAT Au 0 0.000 196.96654
836 Au 0 LAT Au 0 0.000 196.96654
837 Au 0 LAT Au 0 0.000 196.96654
838 Au 0 LAT Au 0 0.000 196.96654
839 Au 0 LAT Au 0 0.000 196.96654
840 Au 0 LAT Au 0 0.000 196.96654
841 Au 0 LAT Au 0 0.000 196.96654
842 Au 0 LAT Au 0 0.000 196.96654
843 Au 0 LAT Au 0 0.000 196.96654
844 Au 0 LAT Au 0 0.000 196.96654
845 Au 0 LAT Au 0 0.000 196.96654
846 Au 0 LAT Au 0 0.000 196.96654
847 Au 0 LAT Au 0 0.000 196.96654
848 Au 0 LAT Au 0 0.000 196.96654
849 Au 0 LAT Au 0 0.000 196.96654
850 Au 0 LAT Au 0 0.000 196.96654
851 Au 0 LAT Au 0 0.000 196.96654
852 Au 0 LAT Au 0 0.000 196.96654
853 Au 0 LAT Au 0 0.000 196.96654
854 Au 0 LAT Au 0 0.000 196.96654
855 Au 0 LAT Au 0 0.000 196.96654
856 Au 0 LAT Au 0 0.000 196.96654
857 Au 0 LAT Au 0 0.000 196.96654
858 Au 0 LAT Au 0 0.000 196.96654
859 Au 0 LAT Au 0 0.000 196.96654
860 Au 0 LAT Au 0 0.000 196.96654
861 Au 0 LAT Au 0 0.000 196.96654
862 Au 0 LAT Au 0 0.000 196.96654
863 Au 0 LAT Au 0 0.000 196.96654
864 Au 0 LAT Au 0 0.000 196.96654
865 Au 0 LAT Au 0 0.000 196.96654
866 Au 0 LAT Au 0 0.000 196.96654
867 Au 0 LAT Au 0 0.000 196.96654
868 Au 0 LAT Au 0 0.000 196.96654
869 Au 0 LAT Au 0 0.000 196.96654
870 Au 0 LAT Au 0 0.000 196.96654
871 Au 0 LAT Au 0 0.000 196.96654
872 Au 0 LAT Au 0 0.000 196.96654
873 Au 0 LAT Au 0 0.000 196.96654
874 Au 0 LAT Au 0 0.000 196.96654
875 Au 0 LAT Au 0 0.000 196.96654
876 Au 0 LAT Au 0 0.000 196.96654
877 Au 0 LAT Au 0 0.000 196.96654
878 Au 0 LAT Au 0 0.000 196.96654
879 Au 0 LAT Au 0 0.000 196.96654
880 Au 0 LAT Au 0 0.000 196.96654
881 Au 0 LAT Au 0 0.000 196.96654
882 Au 0 LAT Au 0 0.000 196.96654
883 Au 0 LAT Au 0 0.000 196.96654
884 Au 0 LAT Au 0 0.000 196.96654
885 Au 0 LAT Au 0 0.000 196.96654
886 Au 0 LAT Au 0 0.000 196.96654
887 Au 0 LAT Au 0 0.000 196.96654
888 Au 0 LAT Au 0 0.000 196.96654
889 Au 0 LAT Au 0 0.000 196.96654
890 Au 0 LAT Au 0 0.000 196.96654
891 Au 0 LAT Au 0 0.000 196.96654
892 Au 0 LAT Au 0 0.000 196.96654
893 Au 0 LAT Au 0 0.000 196.96654
894 Au 0 LAT Au 0 0.000 196.96654
895 Au 0 LAT Au 0 0.000 196.96654
896 Au 0 LAT Au 0 0.000 196.96654
897 Au 0 LAT Au 0 0.000 196.96654
898 Au 0 LAT Au 0 0.000 196.96654
899 Au 0 LAT Au 0 0.000 196.96654
900 Au 0 LAT Au 0 0.000 196.96654
901 Au 0 LAT Au 0 0.000 196.96654
902 Au 0 LAT Au 0 0.000 196.96654
903 Au 0 LAT Au 0 0.000 196.96654
904 Au 0 LAT Au 0 0.000 196.96654
905 Au 0 LAT Au 0 0.000 196.96654
906 Au 0 LAT Au 0 0.000 196.96654
907 Au 0 LAT Au 0 0.000 196.96654
908 Au 0 LAT Au 0 0.000 196.96654
909 Au 0 LAT Au 0 0.000 196.96654
910 Au 0 LAT Au 0 0.000 196.96654
911 Au 0 LAT Au 0 0.000 196.96654
912 Au 0 LAT Au 0 0.000 196.96654
913 Au 0 LAT Au 0 0.000 196.96654
914 Au 0 LAT Au 0 0.000 196.96654
915 Au 0 LAT Au 0 0.000 196.96654
916 Au 0 LAT Au 0 0.000 196.96654
917 Au 0 LAT Au 0 0.000 196.96654
918 Au 0 LAT Au 0 0.000 196.96654
919 Au 0 LAT Au 0 0.000 196.96654
920 Au 0 LAT Au 0 0.000 196.96654
921 Au 0 LAT Au 0 0.000 196.96654
922 Au 0 LAT Au 0 0.000 196.96654
923 Au 0 LAT Au 0 0.000 196.96654
924 Au 0 LAT Au 0 0.000 196.96654
925 Au 0 LAT Au 0 0.000 196.96654
926 Au 0 LAT Au 0 0.000 196.96654
927 Au 0 LAT Au 0 0.000 196.96654
928 Au 0 LAT Au 0 0.000 196.96654
929 Au 0 LAT Au 0 0.000 196.96654
930 Au 0 LAT Au 0 0.000 196.96654
931 Au 0 LAT Au 0 0.000 196.96654
932 Au 0 LAT Au 0 0.000 196.96654
933 Au 0 LAT Au 0 0.000 196.96654
934 Au 0 LAT Au 0 0.000 196.96654
935 Au 0 LAT Au 0 0.000 196.96654
936 Au 0 LAT Au 0 0.000 196.96654
937 Au 0 LAT Au 0 0.000 196.96654
938 Au 0 LAT Au 0 0.000 196.96654
939 Au 0 LAT Au 0 0.000 196.96654
940 Au 0 LAT Au 0 0.000 196.96654
941 Au 0 LAT Au 0 0.000 196.96654
942 Au 0 LAT Au 0 0.000 196.96654
943 Au 0 LAT Au 0 0.000 196.96654
944 Au 0 LAT Au 0 0.000 196.96654
945 Au 0 LAT Au 0 0.000 196.96654
946 Au 0 LAT Au 0 0.000 196.96654
947 Au 0 LAT Au 0 0.000 196.96654
948 Au 0 LAT Au 0 0.000 196.96654
949 Au 0 LAT Au 0 0.000 196.96654
950 Au 0 LAT Au 0 0.000 196.96654
951 Au 0 LAT Au 0 0.000 196.96654
952 Au 0 LAT Au 0 0.000 196.96654
953 Au 0 LAT Au 0 0.000 196.96654
954 Au 0 LAT Au 0 0.000 196.96654
955 Au 0 LAT Au 0 0.000 196.96654
956 Au 0 LAT Au 0 0.000 196.96654
957 Au 0 LAT Au 0 0.000 196.96654
958 Au 0 LAT Au 0 0.000 196.96654
959 Au 0 LAT Au 0 0.000 196.96654
960 Au 0 LAT Au 0 0.000 196.96654
961 Au 0 LAT Au 0 0.000 196.96654
962 Au 0 LAT Au 0 0.000 196.96654
963 Au 0 LAT Au 0 0.000 196.96654
964 Au 0 LAT Au 0 0.000 196.96654
965 Au 0 LAT Au 0 0.000 196.96654
966 Au 0 LAT Au 0 0.000 196.96654
967 Au 0 LAT Au 0 0.000 196.96654
968 Au 0 LAT Au 0 0.000 196.96654
969 Au 0 LAT Au 0 0.000 196.96654
970 Au 0 LAT Au 0 0.000 196.96654
971 Au 0 LAT Au 0 0.000 196.96654
972 Au 0 LAT Au 0 0.000 196.96654
973 Au 0 LAT Au 0 0.000 196.96654
974 Au 0 LAT Au 0 0.000 196.96654
975 Au 0 LAT Au 0 0.000 196.96654
976 Au 0 LAT Au 0 0.000 196.96654
977 Au 0 LAT Au 0 0.000 196.96654
978 Au 0 LAT Au 0 0.000 196.96654
979 Au 0 LAT Au 0 0.000 196.96654
980 Au 0 LAT Au 0 0.000 196.96654
981 Au 0 LAT Au 0 0.000 196.96654
982 Au 0 LAT Au 0 0.000 196.96654
983 Au 0 LAT Au 0 0.000 196.96654
984 Au 0 LAT Au 0 0.000 196.96654
985 Au 0 LAT Au 0 0.000 196.96654
986 Au 0 LAT Au 0 0.000 196.96654
987 Au 0 LAT Au 0 0.000 196.96654
988 Au 0 LAT Au 0 0.000 196.96654
989 Au 0 LAT Au 0 0.000 196.96654
990 Au 0 LAT Au 0 0.000 196.96654
991 Au 0 LAT Au 0 0.000 196.96654
992 Au 0 LAT Au 0 0.000 196.96654
993 Au 0 LAT Au 0 0.000 196.96654
994 Au 0 LAT Au 0 0.000 196.96654
995 Au 0 LAT Au 0 0.000 196.96654
996 Au 0 LAT Au 0 0.000 196.96654
997 Au 0 LAT Au 0 0.000 196.96654
998 Au 0 LAT Au 0 0.000 196.96654
999 Au 0 LAT Au 0 0.000 196.96654
1000 Au 0 LAT Au 0 0.000 196.96654
1001 Au 0 LAT Au 0 0.000 196.96654
1002 Au 0 LAT Au 0 0.000 196.96654
1003 Au 0 LAT Au 0 0.000 196.96654
1004 Au 0 LAT Au 0 0.000 196.96654
1005 Au 0 LAT Au 0 0.000 196.96654
1006 Au 0 LAT Au 0 0.000 196.96654
1007 Au 0 LAT Au 0 0.000 196.96654
1008 Au 0 LAT Au 0 0.000 196.96654
1009 Au 0 LAT Au 0 0.000 196.96654
1010 Au 0 LAT Au 0 0.000 196.96654
1011 Au 0 LAT Au 0 0.000 196.96654
1012 Au 0 LAT Au 0 0.000 196.96654
1013 Au 0 LAT Au 0 0.000 196.96654
1014 Au 0 LAT Au 0 0.000 196.96654
1015 Au 0 LAT Au 0 0.000 196.96654
1016 Au 0 LAT Au 0 0.000 196.96654
1017 Au 0 LAT Au 0 0.000 196.96654
1018 Au 0 LAT Au 0 0.000 196.96654
1019 Au 0 LAT Au 0 0.000 196.96654
1020 Au 0 LAT Au 0 0.000 196.96654
1021 Au 0 LAT Au 0 0.000 196.96654
1022 Au 0 LAT Au 0 0.000 196.96654
1023 Au 0 LAT Au 0 0.000 196.96654
1024 Au 0 LAT Au 0 0.000 196.96654
1025 Au 0 LAT Au 0 0.000 196.96654
1026 Au 0 LAT Au 0 0.000 196.96654
1027 Au 0 LAT Au 0 0.000 196.96654
1028 Au 0 LAT Au 0 0.000 196.96654
1029 Au 0 LAT Au 0 0.000 196.96654
1030 Au 0 LAT Au 0 0.000 196.96654
1031 Au 0 LAT Au 0 0.000 196.96654
1032 Au 0 LAT Au 0 0.000 196.96654
1033 Au 0 LAT Au 0 0.000 196.96654
1034 Au 0 LAT Au 0 0.000 196.96654
1035 Au 0 LAT Au 0 0.000 196.96654
1036 Au 0 LAT Au 0 0.000 196.96654
1037 Au 0 LAT Au 0 0.000 196.96654
1038 Au 0 LAT Au 0 0.000 196.96654
1039 Au 0 LAT Au 0 0.000 196.96654
1040 Au 0 LAT Au 0 0.000 196.96654
1041 Au 0 LAT Au 0 0.000 196.96654
1042 Au 0 LAT Au 0 0.000 196.96654
1043 Au 0 LAT Au 0 0.000 196.96654
1044 Au 0 LAT Au 0 0.000 196.96654
1045 Au 0 LAT Au 0 0.000 196.96654
1046 Au 0 LAT Au 0 0.000 196.96654
1047 Au 0 LAT Au 0 0.000 196.96654
1048 Au 0 LAT Au 0 0.000 196.96654
1049 Au 0 LAT Au 0 0.000 196.96654
1050 Au 0 LAT Au 0 0.000 196.96654
1051 Au 0 LAT Au 0 0.000 196.96654
1052 Au 0 LAT Au 0 0.000 196.96654
1053 Au 0 LAT Au 0 0.000 196.96654
1054 Au 0 LAT Au 0 0.000 196.96654
1055 Au 0 LAT Au 0 0.000 196.96654
1056 Au 0 LAT Au 0 0.000 196.96654
1057 Au 0 LAT Au 0 0.000 196.96654
1058 Au 0 LAT Au 0 0.000 196.96654
1059 Au 0 LAT Au 0 0.000 196.96654
1060 Au 0 LAT Au 0 0.000 196.96654
1061 Au 0 LAT Au 0 0.000 196.96654
1062 Au 0 LAT Au 0 0.000 196.96654
1063 Au 0 LAT Au 0 0.000 196.96654
1064 Au 0 LAT Au 0 0.000 196.96654
1065 Au 0 LAT Au 0 0.000 196.96654
1066 Au 0 LAT Au 0 0.000 196.96654
1067 Au 0 LAT Au 0 0.000 196.96654
1068 Au 0 LAT Au 0 0.000 196.96654
1069 Au 0 LAT Au 0 0.000 196.96654
1070 Au 0 LAT Au 0 0.000 196.96654
1071 Au 0 LAT Au 0 0.000 196.96654
1072 Au 0 LAT Au 0 0.000 196.96654
1073 Au 0 LAT Au 0 0.000 196.96654
1074 Au 0 LAT Au 0 0.000 196.96654
1075 Au 0 LAT Au 0 0.000 196.96654
1076 Au 0 LAT Au 0 0.000 196.96654
1077 Au 0 LAT Au 0 0.000 196.96654
1078 Au 0 LAT Au 0 0.000 196.96654
1079 Au 0 LAT Au 0 0.000 196.96654
1080 Au 0 LAT Au 0 0.000 196.96654
1081 Au 0 LAT Au 0 0.000 196.96654
1082 Au 0 LAT Au 0 0.000 196.96654
1083 Au 0 LAT Au 0 0.000 196.96654
1084 Au 0 LAT Au 0 0.000 196.96654
1085 Au 0 LAT Au 0 0.000 196.96654
1086 Au 0 LAT Au 0 0.000 196.96654
1087 Au 0 LAT Au 0 0.000 196.96654
1088 Au 0 LAT Au 0 0.000 196.96654
1089 Au 0 LAT Au 0 0.000 196.96654
1090 Au 0 LAT Au 0 0.000 196.96654
1091 Au 0 LAT Au 0 0.000 196.96654
1092 Au 0 LAT Au 0 0.000 196.96654
1093 Au 0 LAT Au 0 0.000 196.96654
1094 Au 0 LAT Au 0 0.000 196.96654
1095 Au 0 LAT Au 0 0.000 196.96654
1096 Au 0 LAT Au 0 0.000 196.96654
1097 Au 0 LAT Au 0 0.000 196.96654
1098 Au 0 LAT Au 0 0.000 196.96654
1099 Au 0 LAT Au 0 0.000 196.96654
1100 Au 0 LAT Au 0 0.000 196.96654
1101 Au 0 LAT Au 0 0.000 196.96654
1102 Au 0 LAT Au 0 0.000 196.96654
1103 Au 0 LAT Au 0 0.000 196.96654
1104 Au 0 LAT Au 0 0.000 196.96654
1105 Au 0 LAT Au 0 0.000 196.96654
1106 Au 0 LAT Au 0 0.000 196.96654
1107 Au 0 LAT Au 0 0.000 196.96654
1108 Au 0 LAT Au 0 0.000 196.96654
1109 Au 0 LAT Au 0 0.000 196.96654
1110 Au 0 LAT Au 0 0.000 196.96654
1111 Au 0 LAT Au 0 0.000 196.96654
1112 Au 0 LAT Au 0 0.000 196.96654
1113 Au 0 LAT Au 0 0.000 196.96654
1114 Au 0 LAT Au 0 0.000 196.96654
1115 Au 0 LAT Au 0 0.000 196.96654
1116 Au 0 LAT Au 0 0.000 196.96654
1117 Au 0 LAT Au 0 0.000 196.96654
1118 Au 0 LAT Au 0 0.000 196.96654
1119 Au 0 LAT Au 0 0.000 196.96654
1120 Au 0 LAT Au 0 0.000 196.96654
1121 Au 0 LAT Au 0 0.000 196.96654
1122 Au 0 LAT Au 0 0.000 196.96654
1123 Au 0 LAT Au 0 0.000 196.96654
1124 Au 0 LAT Au 0 0.000 196.96654
1125 Au 0 LAT Au 0 0.000 196.96654
1126 Au 0 LAT Au 0 0.000 196.96654
1127 Au 0 LAT Au 0 0.000 196.96654
1128 Au 0 LAT Au 0 0.000 196.96654
1129 Au 0 LAT Au 0 0.000 196.96654
1130 Au 0 LAT Au 0 0.000 196.96654
1131 Au 0 LAT Au 0 0.000 196.96654
1132 Au 0 LAT Au 0 0.000 196.96654
1133 Au 0 LAT Au 0 0.000 196.96654
1134 Au 0 LAT Au 0 0.000 196.96654
1135 Au 0 LAT Au 0 0.000 196.96654
1136 Au 0 LAT Au 0 0.000 196.96654
1137 Au 0 LAT Au 0 0.000 196.96654
1138 Au 0 LAT Au 0 0.000 196.96654
1139 Au 0 LAT Au 0 0.000 196.96654
1140 Au 0 LAT Au 0 0.000 196.96654
1141 Au 0 LAT Au 0 0.000 196.96654
1142 Au 0 LAT Au 0 0.000 196.96654
1143 Au 0 LAT Au 0 0.000 196.96654
1144 Au 0 LAT Au 0 0.000 196.96654
1145 Au 0 LAT Au 0 0.000 196.96654
1146 Au 0 LAT Au 0 0.000 196.96654
1147 Au 0 LAT Au 0 0.000 196.96654
1148 Au 0 LAT Au 0 0.000 196.96654
1149 Au 0 LAT Au 0 0.000 196.96654
1150 Au 0 LAT Au 0 0.000 196.96654
1151 Au 0 LAT Au 0 0.000 196.96654
1152 Au 0 LAT Au 0 0.000 196.96654
1153 Au 0 LAT Au 0 0.000 196.96654
1154 Au 0 LAT Au 0 0.000 196.96654
1155 Au 0 LAT Au 0 0.000 196.96654
1156 Au 0 LAT Au 0 0.000 196.96654
1157 Au 0 LAT Au 0 0.000 196.96654
1158 Au 0 LAT Au 0 0.000 196.96654
1159 Au 0 LAT Au 0 0.000 196.96654
1160 Au 0 LAT Au 0 0.000 196.96654
1161 Au 0 LAT Au 0 0.000 196.96654
1162 Au 0 LAT Au 0 0.000 196.96654
1163 Au 0 LAT Au 0 0.000 196.96654
1164 Au 0 LAT Au 0 0.000 196.96654
1165 Au 0 LAT Au 0 0.000 196.96654
1166 Au 0 LAT Au 0 0.000 196.96654
1167 Au 0 LAT Au 0 0.000 196.96654
1168 Au 0 LAT Au 0 0.000 196.96654
1169 Au 0 LAT Au 0 0.000 196.96654
1170 Au 0 LAT Au 0 0.000 196.96654
1171 Au 0 LAT Au 0 0.000 196.96654
1172 Au 0 LAT Au 0 0.000 196.96654
1173 Au 0 LAT Au 0 0.000 196.96654
1174 Au 0 LAT Au 0 0.000 196.96654
1175 Au 0 LAT Au 0 0.000 196.96654
1176 Au 0 LAT Au 0 0.000 196.96654
1177 Au 0 LAT Au 0 0.000 196.96654
1178 Au 0 LAT Au 0 0.000 196.96654
1179 Au 0 LAT Au 0 0.000 196.96654
1180 Au 0 LAT Au 0 0.000 196.96654
1181 Au 0 LAT Au 0 0.000 196.96654
1182 Au 0 LAT Au 0 0.000 196.96654
1183 Au 0 LAT Au 0 0.000 196.96654
1184 Au 0 LAT Au 0 0.000 196.96654
1185 Au 0 LAT Au 0 0.000 196.96654
1186 Au 0 LAT Au 0 0.000 196.96654
1187 Au 0 LAT Au 0 0.000 196.96654
1188 Au 0 LAT Au 0 0.000 196.96654
1189 Au 0 LAT Au 0 0.000 196.96654
1190 Au 0 LAT Au 0 0.000 196.96654
1191 Au 0 LAT Au 0 0.000 196.96654
1192 Au 0 LAT Au 0 0.000 196.96654
1193 Au 0 LAT Au 0 0.000 196.96654
1194 Au 0 LAT Au 0 0.000 196.96654
1195 Au 0 LAT Au 0 0.000 196.96654
1196 Au 0 LAT Au 0 0.000 196.96654
1197 Au 0 LAT Au 0 0.000 196.96654
1198 Au 0 LAT Au 0 0.000 196.96654
1199 Au 0 LAT Au 0 0.000 196.96654
1200 Au 0 LAT Au 0 0.000 196.96654
1201 Au 0 LAT Au 0 0.000 196.96654
1202 Au 0 LAT Au 0 0.000 196.96654
1203 Au 0 LAT Au 0 0.000 196.96654
1204 Au 0 LAT Au 0 0.000 196.96654
1205 Au 0 LAT Au 0 0.000 196.96654
1206 Au 0 LAT Au 0 0.000 196.96654
1207 Au 0 LAT Au 0 0.000 196.96654
1208 Au 0 LAT Au 0 0.000 196.96654
1209 Au 0 LAT Au 0 0.000 196.96654
1210 Au 0 LAT Au 0 0.000 196.96654
1211 Au 0 LAT Au 0 0.000 196.96654
1212 Au 0 LAT Au 0 0.000 196.96654
1213 Au 0 LAT Au 0 0.000 196.96654
1214 Au 0 LAT Au 0 0.000 196.96654
1215 Au 0 LAT Au 0 0.000 196.96654
1216 Au 0 LAT Au 0 0.000 196.96654
1217 Au 0 LAT Au 0 0.000 196.96654
1218 Au 0 LAT Au 0 0.000 196.96654
1219 Au 0 LAT Au 0 0.000 196.96654
1220 Au 0 LAT Au 0 0.000 196.96654
1221 Au 0 LAT Au 0 0.000 196.96654
1222 Au 0 LAT Au 0 0.000 196.96654
1223 Au 0 LAT Au 0 0.000 196.96654
1224 Au 0 LAT Au 0 0.000 196.96654
1225 Au 0 LAT Au 0 0.000 196.96654
1226 Au 0 LAT Au 0 0.000 196.96654
1227 Au 0 LAT Au 0 0.000 196.96654
1228 Au 0 LAT Au 0 0.000 196.96654
1229 Au 0 LAT Au 0 0.000 196.96654
1230 Au 0 LAT Au 0 0.000 196.96654
1231 Au 0 LAT Au 0 0.000 196.96654
1232 Au 0 LAT Au 0 0.000 196.96654
1233 Au 0 LAT Au 0 0.000 196.96654
1234 Au 0 LAT Au 0 0.000 196.96654
1235 Au 0 LAT Au 0 0.000 196.96654
1236 Au 0 LAT Au 0 0.000 196.96654
1237 Au 0 LAT Au 0 0.000 196.96654
1238 Au 0 LAT Au 0 0.000 196.96654
1239 Au 0 LAT Au 0 0.000 196.96654
1240 Au 0 LAT Au 0 0.000 196.96654
1241 Au 0 LAT Au 0 0.000 196.96654
1242 Au 0 LAT Au 0 0.000 196.96654
1243 Au 0 LAT Au 0 0.000 196.96654
1244 Au 0 LAT Au 0 0.000 196.96654
1245 Au 0 LAT Au 0 0.000 196.96654
1246 Au 0 LAT Au 0 0.000 196.96654
1247 Au 0 LAT Au 0 0.000 196.96654
1248 Au 0 LAT Au 0 0.000 196.96654
1249 Au 0 LAT Au 0 0.000 196.96654
1250 Au 0 LAT Au 0 0.000 196.96654
1251 Au 0 LAT Au 0 0.000 196.96654
1252 Au 0 LAT Au 0 0.000 196.96654
1253 Au 0 LAT Au 0 0.000 196.96654
1254 Au 0 LAT Au 0 0.000 196.96654
1255 Au 0 LAT Au 0 0.000 196.96654
1256 Au 0 LAT Au 0 0.000 196.96654
1257 Au 0 LAT Au 0 0.000 196.96654
1258 Au 0 LAT Au 0 0.000 196.96654
1259 Au 0 LAT Au 0 0.000 196.96654
1260 Au 0 LAT Au 0 0.000 196.96654
1261 Au 0 LAT Au 0 0.000 196.96654
1262 Au 0 LAT Au 0 0.000 196.96654
1263 Au 0 LAT Au 0 0.000 196.96654
1264 Au 0 LAT Au 0 0.000 196.96654
1265 Au 0 LAT Au 0 0.000 196.96654
1266 Au 0 LAT Au 0 0.000 196.96654
1267 Au 0 LAT Au 0 0.000 196.96654
1268 Au 0 LAT Au 0 0.000 196.96654
1269 Au 0 LAT Au 0 0.000 196.96654
1270 Au 0 LAT Au 0 0.000 196.96654
1271 Au 0 LAT Au 0 0.000 196.96654
1272 Au 0 LAT Au 0 0.000 196.96654
1273 Au 0 LAT Au 0 0.000 196.96654
1274 Au 0 LAT Au 0 0.000 196.96654
1275 Au 0 LAT Au 0 0.000 196.96654
1276 Au 0 LAT Au 0 0.000 196.96654
1277 Au 0 LAT Au 0 0.000 196.96654
1278 Au 0 LAT Au 0 0.000 196.96654
1279 Au 0 LAT Au 0 0.000 196.96654
1280 Au 0 LAT Au 0 0.000 196.96654
1281 Au 0 LAT Au 0 0.000 196.96654
1282 Au 0 LAT Au 0 0.000 196.96654
1283 Au 0 LAT Au 0 0.000 196.96654
1284 Au 0 LAT Au 0 0.000 196.96654
1285 Au 0 LAT Au 0 0.000 196.96654
1286 Au 0 LAT Au 0 0.000 196.96654
1287 Au 0 LAT Au 0 0.000 196.96654
1288 Au 0 LAT Au 0 0.000 196.96654
1289 Au 0 LAT Au 0 0.000 196.96654
1290 Au 0 LAT Au 0 0.000 196.96654
1291 Au 0 LAT Au 0 0.000 196.96654
1292 Au 0 LAT Au 0 0.000 196.96654
1293 Au 0 LAT Au 0 0.000 196.96654
1294 Au 0 LAT Au 0 0.000 196.96654
1295 Au 0 LAT Au 0 0.000 196.96654
1296 Au 0 LAT Au 0 0.000 196.96654
1297 Au 0 LAT Au 0 0.000 196.96654
1298 Au 0 LAT Au 0 0.000 196.96654
1299 Au 0 LAT Au 0 0.000 196.96654
1300 Au 0 LAT Au 0 0.000 196.96654
1301 Au 0 LAT Au 0 0.000 196.96654
1302 Au 0 LAT Au 0 0.000 196.96654
1303 Au 0 LAT Au 0 0.000 196.96654
1304 Au 0 LAT Au 0 0.000 196.96654
1305 Au 0 LAT Au 0 0.000 196.96654
1306 Au 0 LAT Au 0 0.000 196.96654
1307 Au 0 LAT Au 0 0.000 196.96654
1308 Au 0 LAT Au 0 0.000 196.96654
1309 Au 0 LAT Au 0 0.000 196.96654
1310 Au 0 LAT Au 0 0.000 196.96654
1311 Au 0 LAT Au 0 0.000 196.96654
1312 Au 0 LAT Au 0 0.000 196.96654
1313 Au 0 LAT Au 0 0.000 196.96654
1314 Au 0 LAT Au 0 0.000 196.96654
1315 Au 0 LAT Au 0 0.000 196.96654
1316 Au 0 LAT Au 0 0.000 196.96654
1317 Au 0 LAT Au 0 0.000 196.96654
1318 Au 0 LAT Au 0 0.000 196.96654
1319 Au 0 LAT Au 0 0.000 196.96654
1320 Au 0 LAT Au 0 0.000 196.96654
1321 Au 0 LAT Au 0 0.000 196.96654
1322 Au 0 LAT Au 0 0.000 196.96654
1323 Au 0 LAT Au 0 0.000 196.96654
1324 Au 0 LAT Au 0 0.000 196.96654
1325 Au 0 LAT Au 0 0.000 196.96654
1326 Au 0 LAT Au 0 0.000 196.96654
1327 Au 0 LAT Au 0 0.000 196.96654
1328 Au 0 LAT Au 0 0.000 196.96654
1329 Au 0 LAT Au 0 0.000 196.96654
1330 Au 0 LAT Au 0 0.000 196.96654
1331 Au 0 LAT Au 0 0.000 196.96654
1332 Au 0 LAT Au 0 0.000 196.96654
1333 Au 0 LAT Au 0 0.000 196.96654
1334 Au 0 LAT Au 0 0.000 196.96654
1335 Au 0 LAT Au 0 0.000 196.96654
1336 Au 0 LAT Au 0 0.000 196.96654
1337 Au 0 LAT Au 0 0.000 196.96654
1338 Au 0 LAT Au 0 0.000 196.96654
1339 Au 0 LAT Au 0 0.000 196.96654
1340 Au 0 LAT Au 0 0.000 196.96654
1341 Au 0 LAT Au 0 0.000 196.96654
1342 Au 0 LAT Au 0 0.000 196.96654
1343 Au 0 LAT Au 0 0.000 196.96654
1344 Au 0 LAT Au 0 0.000 196.96654
1345 Au 0 LAT Au 0 0.000 196.96654
1346 Au 0 LAT Au 0 0.000 196.96654
1347 Au 0 LAT Au 0 0.000 196.96654
1348 Au 0 LAT Au 0 0.000 196.96654
1349 Au 0 LAT Au 0 0.000 196.96654
1350 Au 0 LAT Au 0 0.000 196.96654
1351 Au 0 LAT Au 0 0.000 196.96654
1352 Au 0 LAT Au 0 0.000 196.96654
1353 Au 0 LAT Au 0 0.000 196.96654
1354 Au 0 LAT Au 0 0.000 196.96654
1355 Au 0 LAT Au 0 0.000 196.96654
1356 Au 0 LAT Au 0 0.000 196.96654
1357 Au 0 LAT Au 0 0.000 196.96654
1358 Au 0 LAT Au 0 0.000 196.96654
1359 Au 0 LAT Au 0 0.000 196.96654
1360 Au 0 LAT Au 0 0.000 196.96654
1361 Au 0 LAT Au 0 0.000 196.96654
1362 Au 0 LAT Au 0 0.000 196.96654
1363 Au 0 LAT Au 0 0.000 196.96654
1364 Au 0 LAT Au 0 0.000 196.96654
1365 Au 0 LAT Au 0 0.000 196.96654
1366 Au 0 LAT Au 0 0.000 196.96654
1367 Au 0 LAT Au 0 0.000 196.96654
1368 Au 0 LAT Au 0 0.000 196.96654
1369 Au 0 LAT Au 0 0.000 196.96654
1370 Au 0 LAT Au 0 0.000 196.96654
1371 Au 0 LAT Au 0 0.000 196.96654
1372 Au 0 LAT Au 0 0.000 196.96654
1373 Au 0 LAT Au 0 0.000 196.96654
1374 Au 0 LAT Au 0 0.000 196.96654
1375 Au 0 LAT Au 0 0.000 196.96654
1376 Au 0 LAT Au 0 0.000 196.96654
1377 Au 0 LAT Au 0 0.000 196.96654
1378 Au 0 LAT Au 0 0.000 196.96654
1379 Au 0 LAT Au 0 0.000 196.96654
1380 Au 0 LAT Au 0 0.000 196.96654
1381 Au 0 LAT Au 0 0.000 196.96654
1382 Au 0 LAT Au 0 0.000 196.96654
1383 Au 0 LAT Au 0 0.000 196.96654
1384 Au 0 LAT Au 0 0.000 196.96654
1385 Au 0 LAT Au 0 0.000 196.96654
1386 Au 0 LAT Au 0 0.000 196.96654
1387 Au 0 LAT Au 0 0.000 196.96654
1388 Au 0 LAT Au 0 0.000 196.96654
1389 Au 0 LAT Au 0 0.000 196.96654
1390 Au 0 LAT Au 0 0.000 196.96654
1391 Au 0 LAT Au 0 0.000 196.96654
1392 Au 0 LAT Au 0 0.000 196.96654
1393 Au 0 LAT Au 0 0.000 196.96654
1394 Au 0 LAT Au 0 0.000 196.96654
1395 Au 0 LAT Au 0 0.000 196.96654
1396 Au 0 LAT Au 0 0.000 196.96654
1397 Au 0 LAT Au 0 0.000 196.96654
1398 Au 0 LAT Au 0 0.000 196.96654
1399 Au 0 LAT Au 0 0.000 196.96654
1400 Au 0 LAT Au 0 0.000 196.96654
1401 Au 0 LAT Au 0 0.000 196.96654
1402 Au 0 LAT Au 0 0.000 196.96654
1403 Au 0 LAT Au 0 0.000 196.96654
1404 Au 0 LAT Au 0 0.000 196.96654
1405 Au 0 LAT Au 0 0.000 196.96654
1406 Au 0 LAT Au 0 0.000 196.96654
1407 Au 0 LAT Au 0 0.000 196.96654
1408 Au 0 LAT Au 0 0.000 196.96654
1409 Au 0 LAT Au 0 0.000 196.96654
1410 Au 0 LAT Au 0 0.000 196.96654
1411 Au 0 LAT Au 0 0.000 196.96654
1412 Au 0 LAT Au 0 0.000 196.96654
1413 Au 0 LAT Au 0 0.000 196.96654
1414 Au 0 LAT Au 0 0.000 196.96654
1415 Au 0 LAT Au 0 0.000 196.96654
1416 Au 0 LAT Au 0 0.000 196.96654
1417 Au 0 LAT Au 0 0.000 196.96654
1418 Au 0 LAT Au 0 0.000 196.96654
1419 Au 0 LAT Au 0 0.000 196.96654
1420 Au 0 LAT Au 0 0.000 196.96654
1421 Au 0 LAT Au 0 0.000 196.96654
1422 Au 0 LAT Au 0 0.000 196.96654
1423 Au 0 LAT Au 0 0.000 196.96654
1424 Au 0 LAT Au 0 0.000 196.96654
1425 Au 0 LAT Au 0 0.000 196.96654
1426 Au 0 LAT Au 0 0.000 196.96654
1427 Au 0 LAT Au 0 0.000 196.96654
1428 Au 0 LAT Au 0 0.000 196.96654
1429 Au 0 LAT Au 0 0.000 196.96654
1430 Au 0 LAT Au 0 0.000 196.96654
1431 Au 0 LAT Au 0 0.000 196.96654
1432 Au 0 LAT Au 0 0.000 196.96654
1433 Au 0 LAT Au 0 0.000 196.96654
1434 Au 0 LAT Au 0 0.000 196.96654
1435 Au 0 LAT Au 0 0.000 196.96654
1436 Au 0 LAT Au 0 0.000 196.96654
1437 Au 0 LAT Au 0 0.000 196.96654
1438 Au 0 LAT Au 0 0.000 196.96654
1439 Au 0 LAT Au 0 0.000 196.96654
1440 Au 0 LAT Au 0 0.000 196.96654
1441 Au 0 LAT Au 0 0.000 196.96654
1442 Au 0 LAT Au 0 0.000 196.96654
1443 Au 0 LAT Au 0 0.000 196.96654
1444 Au 0 LAT Au 0 0.000 196.96654
1445 Au 0 LAT Au 0 0.000 196.96654
1446 Au 0 LAT Au 0 0.000 196.96654
1447 Au 0 LAT Au 0 0.000 196.96654
1448 Au 0 LAT Au 0 0.000 196.96654
1449 Au 0 LAT Au 0 0.000 196.96654
1450 Au 0 LAT Au 0 0.000 196.96654
1451 Au 0 LAT Au 0 0.000 196.96654
1452 Au 0 LAT Au 0 0.000 196.96654
1453 Au 0 LAT Au 0 0.000 196.96654
1454 Au 0 LAT Au 0 0.000 196.96654
1455 Au 0 LAT Au 0 0.000 196.96654
1456 Au 0 LAT Au 0 0.000 196.96654
1457 Au 0 LAT Au 0 0.000 196.96654
1458 Au 0 LAT Au 0 0.000 196.96654
1459 Au 0 LAT Au 0 0.000 196.96654
1460 Au 0 LAT Au 0 0.000 196.96654
1461 Au 0 LAT Au 0 0.000 196.96654
1462 Au 0 LAT Au 0 0.000 196.96654
1463 Au 0 LAT Au 0 0.000 196.96654
1464 Au 0 LAT Au 0 0.000 196.96654
1465 Au 0 LAT Au 0 0.000 196.96654
1466 Au 0 LAT Au 0 0.000 196.96654
1467 Au 0 LAT Au 0 0.000 196.96654
1468 Au 0 LAT Au 0 0.000 196.96654
1469 Au 0 LAT Au 0 0.000 196.96654
1470 Au 0 LAT Au 0 0.000 196.96654
1471 Au 0 LAT Au 0 0.000 196.96654
1472 Au 0 LAT Au 0 0.000 196.96654
1473 Au 0 LAT Au 0 0.000 196.96654
1474 Au 0 LAT Au 0 0.000 196.96654
1475 Au 0 LAT Au 0 0.000 196.96654
1476 Au 0 LAT Au 0 0.000 196.96654
1477 Au 0 LAT Au 0 0.000 196.96654
1478 Au 0 LAT Au 0 0.000 196.96654
1479 Au 0 LAT Au 0 0.000 196.96654
1480 Au 0 LAT Au 0 0.000 196.96654
1481 Au 0 LAT Au 0 0.000 196.96654
1482 Au 0 LAT Au 0 0.000 196.96654
1483 Au 0 LAT Au 0 0.000 196.96654
1484 Au 0 LAT Au 0 0.000 196.96654
1485 Au 0 LAT Au 0 0.000 196.96654
1486 Au 0 LAT Au 0 0.000 196.96654
1487 Au 0 LAT Au 0 0.000 196.96654
1488 Au 0 LAT Au 0 0.000 196.96654
1489 Au 0 LAT Au 0 0.000 196.96654
1490 Au 0 LAT Au 0 0.000 196.96654
1491 Au 0 LAT Au 0 0.000 196.96654
1492 Au 0 LAT Au 0 0.000 196.96654
1493 Au 0 LAT Au 0 0.000 196.96654
1494 Au 0 LAT Au 0 0.000 196.96654
1495 Au 0 LAT Au 0 0.000 196.96654
1496 Au 0 LAT Au 0 0.000 196.96654
1497 Au 0 LAT Au 0 0.000 196.96654
1498 Au 0 LAT Au 0 0.000 196.96654
1499 Au 0 LAT Au 0 0.000 196.96654
1500 Au 0 LAT Au 0 0.000 196.96654
1501 Au 0 LAT Au 0 0.000 196.96654
1502 Au 0 LAT Au 0 0.000 196.96654
1503 Au 0 LAT Au 0 0.000 196.96654
1504 Au 0 LAT Au 0 0.000 196.96654
1505 Au 0 LAT Au 0 0.000 196.96654
1506 Au 0 LAT Au 0 0.000 196.96654
1507 Au 0 LAT Au 0 0.000 196.96654
1508 Au 0 LAT Au 0 0.000 196.96654
1509 Au 0 LAT Au 0 0.000 196.96654
1510 Au 0 LAT Au 0 0.000 196.96654
1511 Au 0 LAT Au 0 0.000 196.96654
1512 Au 0 LAT Au 0 0.000 196.96654
1513 Au 0 LAT Au 0 0.000 196.96654
1514 Au 0 LAT Au 0 0.000 196.96654
1515 Au 0 LAT Au 0 0.000 196.96654
1516 Au 0 LAT Au 0 0.000 196.96654
1517 Au 0 LAT Au 0 0.000 196.96654
1518 Au 0 LAT Au 0 0.000 196.96654
1519 Au 0 LAT Au 0 0.000 196.96654
1520 Au 0 LAT Au 0 0.000 196.96654
1521 Au 0 LAT Au 0 0.000 196.96654
1522 Au 0 LAT Au 0 0.000 196.96654
1523 Au 0 LAT Au 0 0.000 196.96654
1524 Au 0 LAT Au 0 0.000 196.96654
1525 Au 0 LAT Au 0 0.000 196.96654
1526 Au 0 LAT Au 0 0.000 196.96654
1527 Au 0 LAT Au 0 0.000 196.96654
1528 Au 0 LAT Au 0 0.000 196.96654
1529 Au 0 LAT Au 0 0.000 196.96654
1530 Au 0 LAT Au 0 0.000 196.96654
1531 Au 0 LAT Au 0 0.000 196.96654
1532 Au 0 LAT Au 0 0.000 196.96654
1533 Au 0 LAT Au 0 0.000 196.96654
1534 Au 0 LAT Au 0 0.000 196.96654
1535 Au 0 LAT Au 0 0.000 196.96654
1536 Au 0 LAT Au 0 0.000 196.96654
1537 Au 0 LAT Au 0 0.000 196.96654
1538 Au 0 LAT Au 0 0.000 196.96654
1539 Au 0 LAT Au 0 0.000 196.96654
1540 Au 0 LAT Au 0 0.000 196.96654
1541 Au 0 LAT Au 0 0.000 196.96654
1542 Au 0 LAT Au 0 0.000 196.96654
1543 Au 0 LAT Au 0 0.000 196.96654
1544 Au 0 LAT Au 0 0.000 196.96654
1545 Au 0 LAT Au 0 0.000 196.96654
1546 Au 0 LAT Au 0 0.000 196.96654
1547 Au 0 LAT Au 0 0.000 196.96654
1548 Au 0 LAT Au 0 0.000 196.96654
1549 Au 0 LAT Au 0 0.000 196.96654
1550 Au 0 LAT Au 0 0.000 196.96654
1551 Au 0 LAT Au 0 0.000 196.96654
1552 Au 0 LAT Au 0 0.000 196.96654
1553 Au 0 LAT Au 0 0.000 196.96654
1554 Au 0 LAT Au 0 0.000 196.96654
1555 Au 0 LAT Au 0 0.000 196.96654
1556 Au 0 LAT Au 0 0.000 196.96654
1557 Au 0 LAT Au 0 0.000 196.96654
1558 Au 0 LAT Au 0 0.000 196.96654
1559 Au 0 LAT Au 0 0.000 196.96654
1560 Au 0 LAT Au 0 0.000 196.96654
1561 Au 0 LAT Au 0 0.000 196.96654
1562 Au 0 LAT Au 0 0.000 196.96654
1563 Au 0 LAT Au 0 0.000 196.96654
1564 Au 0 LAT Au 0 0.000 196.96654
1565 Au 0 LAT Au 0 0.000 196.96654
1566 Au 0 LAT Au 0 0.000 196.96654
1567 Au 0 LAT Au 0 0.000 196.96654
1568 Au 0 LAT Au 0 0.000 196.96654
1569 Au 0 LAT Au 0 0.000 196.96654
1570 Au 0 LAT Au 0 0.000 196.96654
1571 Au 0 LAT Au 0 0.000 196.96654
1572 Au 0 LAT Au 0 0.000 196.96654
1573 Au 0 LAT Au 0 0.000 196.96654
1574 Au 0 LAT Au 0 0.000 196.96654
1575 Au 0 LAT Au 0 0.000 196.96654
1576 Au 0 LAT Au 0 0.000 196.96654
1577 Au 0 LAT Au 0 0.000 196.96654
1578 Au 0 LAT Au 0 0.000 196.96654
1579 Au 0 LAT Au 0 0.000 196.96654
1580 Au 0 LAT Au 0 0.000 196.96654
1581 Au 0 LAT Au 0 0.000 196.96654
1582 Au 0 LAT Au 0 0.000 196.96654
1583 Au 0 LAT Au 0 0.000 196.96654
1584 Au 0 LAT Au 0 0.000 196.96654
1585 Au 0 LAT Au 0 0.000 196.96654
1586 Au 0 LAT Au 0 0.000 196.96654
1587 Au 0 LAT Au 0 0.000 196.96654
1588 Au 0 LAT Au 0 0.000 196.96654
1589 Au 0 LAT Au 0 0.000 196.96654
1590 Au 0 LAT Au 0 0.000 196.96654
1591 Au 0 LAT Au 0 0.000 196.96654
1592 Au 0 LAT Au 0 0.000 196.96654
1593 Au 0 LAT Au 0 0.000 196.96654
1594 Au 0 LAT Au 0 0.000 196.96654
1595 Au 0 LAT Au 0 0.000 196.96654
1596 Au 0 LAT Au 0 0.000 196.96654
1597 Au 0 LAT Au 0 0.000 196.96654
1598 Au 0 LAT Au 0 0.000 196.96654
1599 Au 0 LAT Au 0 0.000 196.96654
1600 Au 0 LAT Au 0 0.000 196.96654
1601 Au 0 LAT Au 0 0.000 196.96654
1602 Au 0 LAT Au 0 0.000 196.96654
1603 Au 0 LAT Au 0 0.000 196.96654
1604 Au 0 LAT Au 0 0.000 196.96654
1605 Au 0 LAT Au 0 0.000 196.96654
1606 Au 0 LAT Au 0 0.000 196.96654
1607 Au 0 LAT Au 0 0.000 196.96654
1608 Au 0 LAT Au 0 0.000 196.96654
1609 Au 0 LAT Au 0 0.000 196.96654
1610 Au 0 LAT Au 0 0.000 196.96654
1611 Au 0 LAT Au 0 0.000 196.96654
1612 Au 0 LAT Au 0 0.000 196.96654
1613 Au 0 LAT Au 0 0.000 196.96654
1614 Au 0 LAT Au 0 0.000 196.96654
1615 Au 0 LAT Au 0 0.000 196.96654
1616 Au 0 LAT Au 0 0.000 196.96654
1617 Au 0 LAT Au 0 0.000 196.96654
1618 Au 0 LAT Au 0 0.000 196.96654
1619 Au 0 LAT Au 0 0.000 196.96654
1620 Au 0 LAT Au 0 0.000 196.96654
1621 Au 0 LAT Au 0 0.000 196.96654
1622 Au 0 LAT Au 0 0.000 196.96654
1623 Au 0 LAT Au 0 0.000 196.96654
1624 Au 0 LAT Au 0 0.000 196.96654
1625 Au 0 LAT Au 0 0.000 196.96654
1626 Au 0 LAT Au 0 0.000 196.96654
1627 Au 0 LAT Au 0 0.000 196.96654
1628 Au 0 LAT Au 0 0.000 196.96654
1629 Au 0 LAT Au 0 0.000 196.96654
1630 Au 0 LAT Au 0 0.000 196.96654
1631 Au 0 LAT Au 0 0.000 196.96654
1632 Au 0 LAT Au 0 0.000 196.96654
1633 Au 0 LAT Au 0 0.000 196.96654
1634 Au 0 LAT Au 0 0.000 196.96654
1635 Au 0 LAT Au 0 0.000 196.96654
1636 Au 0 LAT Au 0 0.000 196.96654
1637 Au 0 LAT Au 0 0.000 196.96654
1638 Au 0 LAT Au 0 0.000 196.96654
1639 Au 0 LAT Au 0 0.000 196.96654
1640 Au 0 LAT Au 0 0.000 196.96654
1641 Au 0 LAT Au 0 0.000 196.96654
1642 Au 0 LAT Au 0 0.000 196.96654
1643 Au 0 LAT Au 0 0.000 196.96654
1644 Au 0 LAT Au 0 0.000 196.96654
1645 Au 0 LAT Au 0 0.000 196.96654
1646 Au 0 LAT Au 0 0.000 196.96654
1647 Au 0 LAT Au 0 0.000 196.96654
1648 Au 0 LAT Au 0 0.000 196.96654
1649 Au 0 LAT Au 0 0.000 196.96654
1650 Au 0 LAT Au 0 0.000 196.96654
1651 Au 0 LAT Au 0 0.000 196.96654
1652 Au 0 LAT Au 0 0.000 196.96654
1653 Au 0 LAT Au 0 0.000 196.96654
1654 Au 0 LAT Au 0 0.000 196.96654
1655 Au 0 LAT Au 0 0.000 196.96654
1656 Au 0 LAT Au 0 0.000 196.96654
1657 Au 0 LAT Au 0 0.000 196.96654
1658 Au 0 LAT Au 0 0.000 196.96654
1659 Au 0 LAT Au 0 0.000 196.96654
1660 Au 0 LAT Au 0 0.000 196.96654
1661 Au 0 LAT Au 0 0.000 196.96654
1662 Au 0 LAT Au 0 0.000 196.96654
1663 Au 0 LAT Au 0 0.000 196.96654
1664 Au 0 LAT Au 0 0.000 196.96654
1665 Au 0 LAT Au 0 0.000 196.96654
1666 Au 0 LAT Au 0 0.000 196.96654
1667 Au 0 LAT Au 0 0.000 196.96654
1668 Au 0 LAT Au 0 0.000 196.96654
1669 Au 0 LAT Au 0 0.000 196.96654
1670 Au 0 LAT Au 0 0.000 196.96654
1671 Au 0 LAT Au 0 0.000 196.96654
1672 Au 0 LAT Au 0 0.000 196.96654
1673 Au 0 LAT Au 0 0.000 196.96654
1674 Au 0 LAT Au 0 0.000 196.96654
1675 Au 0 LAT Au 0 0.000 196.96654
1676 Au 0 LAT Au 0 0.000 196.96654
1677 Au 0 LAT Au 0 0.000 196.96654
1678 Au 0 LAT Au 0 0.000 196.96654
1679 Au 0 LAT Au 0 0.000 196.96654
1680 Au 0 LAT Au 0 0.000 196.96654
1681 Au 0 LAT Au 0 0.000 196.96654
1682 Au 0 LAT Au 0 0.000 196.96654
1683 Au 0 LAT Au 0 0.000 196.96654
1684 Au 0 LAT Au 0 0.000 196.96654
1685 Au 0 LAT Au 0 0.000 196.96654
1686 Au 0 LAT Au 0 0.000 196.96654
1687 Au 0 LAT Au 0 0.000 196.96654
1688 Au 0 LAT Au 0 0.000 196.96654
1689 Au 0 LAT Au 0 0.000 196.96654
1690 Au 0 LAT Au 0 0.000 196.96654
1691 Au 0 LAT Au 0 0.000 196.96654
1692 Au 0 LAT Au 0 0.000 196.96654
1693 Au 0 LAT Au 0 0.000 196.96654
1694 Au 0 LAT Au 0 0.000 196.96654
1695 Au 0 LAT Au 0 0.000 196.96654
1696 Au 0 LAT Au 0 0.000 196.96654
1697 Au 0 LAT Au 0 0.000 196.96654
1698 Au 0 LAT Au 0 0.000 196.96654
1699 Au 0 LAT Au 0 0.000 196.96654
1700 Au 0 LAT Au 0 0.000 196.96654
1701 Au 0 LAT Au 0 0.000 196.96654
1702 Au 0 LAT Au 0 0.000 196.96654
1703 Au 0 LAT Au 0 0.000 196.96654
1704 Au 0 LAT Au 0 0.000 196.96654
1705 Au 0 LAT Au 0 0.000 196.96654
1706 Au 0 LAT Au 0 0.000 196.96654
1707 Au 0 LAT Au 0 0.000 196.96654
1708 Au 0 LAT Au 0 0.000 196.96654
1709 Au 0 LAT Au 0 0.000 196.96654
1710 Au 0 LAT Au 0 0.000 196.96654
1711 Au 0 LAT Au 0 0.000 196.96654
1712 Au 0 LAT Au 0 0.000 196.96654
1713 Au 0 LAT Au 0 0.000 196.96654
1714 Au 0 LAT Au 0 0.000 196.96654
1715 Au 0 LAT Au 0 0.000 196.96654
1716 Au 0 LAT Au 0 0.000 196.96654
1717 Au 0 LAT Au 0 0.000 196.96654
1718 Au 0 LAT Au 0 0.000 196.96654
1719 Au 0 LAT Au 0 0.000 196.96654
1720 Au 0 LAT Au 0 0.000 196.96654
1721 Au 0 LAT Au 0 0.000 196.96654
1722 Au 0 LAT Au 0 0.000 196.96654
1723 Au 0 LAT Au 0 0.000 196.96654
1724 Au 0 LAT Au 0 0.000 196.96654
1725 Au 0 LAT Au 0 0.000 196.96654
1726 Au 0 LAT Au 0 0.000 196.96654
1727 Au 0 LAT Au 0 0.000 196.96654
1728 Au 0 LAT Au 0 0.000 196.96654
1729 Au 0 LAT Au 0 0.000 196.96654
1730 Au 0 LAT Au 0 0.000 196.96654
1731 Au 0 LAT Au 0 0.000 196.96654
1732 Au 0 LAT Au 0 0.000 196.96654
1733 Au 0 LAT Au 0 0.000 196.96654
1734 Au 0 LAT Au 0 0.000 196.96654
1735 Au 0 LAT Au 0 0.000 196.96654
1736 Au 0 LAT Au 0 0.000 196.96654
1737 Au 0 LAT Au 0 0.000 196.96654
1738 Au 0 LAT Au 0 0.000 196.96654
1739 Au 0 LAT Au 0 0.000 196.96654
1740 Au 0 LAT Au 0 0.000 196.96654
1741 Au 0 LAT Au 0 0.000 196.96654
1742 Au 0 LAT Au 0 0.000 196.96654
1743 Au 0 LAT Au 0 0.000 196.96654
1744 Au 0 LAT Au 0 0.000 196.96654
1745 Au 0 LAT Au 0 0.000 196.96654
1746 Au 0 LAT Au 0 0.000 196.96654
1747 Au 0 LAT Au 0 0.000 196.96654
1748 Au 0 LAT Au 0 0.000 196.96654
1749 Au 0 LAT Au 0 0.000 196.96654
1750 Au 0 LAT Au 0 0.000 196.96654
1751 Au 0 LAT Au 0 0.000 196.96654
1752 Au 0 LAT Au 0 0.000 196.96654
1753 Au 0 LAT Au 0 0.000 196.96654
1754 Au 0 LAT Au 0 0.000 196.96654
1755 Au 0 LAT Au 0 0.000 196.96654
1756 Au 0 LAT Au 0 0.000 196.96654
1757 Au 0 LAT Au 0 0.000 196.96654
1758 Au 0 LAT Au 0 0.000 196.96654
1759 Au 0 LAT Au 0 0.000 196.96654
1760 Au 0 LAT Au 0 0.000 196.96654
1761 Au 0 LAT Au 0 0.000 196.96654
1762 Au 0 LAT Au 0 0.000 196.96654
1763 Au 0 LAT Au 0 0.000 196.96654
1764 Au 0 LAT Au 0 0.000 196.96654
1765 Au 0 LAT Au 0 0.000 196.96654
1766 Au 0 LAT Au 0 0.000 196.96654
1767 Au 0 LAT Au 0 0.000 196.96654
1768 Au 0 LAT Au 0 0.000 196.96654
1769 Au 0 LAT Au 0 0.000 196.96654
1770 Au 0 LAT Au 0 0.000 196.96654
1771 Au 0 LAT Au 0 0.000 196.96654
1772 Au 0 LAT Au 0 0.000 196.96654
1773 Au 0 LAT Au 0 0.000 196.96654
1774 Au 0 LAT Au 0 0.000 196.96654
1775 Au 0 LAT Au 0 0.000 196.96654
1776 Au 0 LAT Au 0 0.000 196.96654
1777 Au 0 LAT Au 0 0.000 196.96654
1778 Au 0 LAT Au 0 0.000 196.96654
1779 Au 0 LAT Au 0 0.000 196.96654
1780 Au 0 LAT Au 0 0.000 196.96654
1781 Au 0 LAT Au 0 0.000 196.96654
1782 Au 0 LAT Au 0 0.000 196.96654
1783 Au 0 LAT Au 0 0.000 196.96654
1784 Au 0 LAT Au 0 0.000 196.96654
1785 Au 0 LAT Au 0 0.000 196.96654
1786 Au 0 LAT Au 0 0.000 196.96654
1787 Au 0 LAT Au 0 0.000 196.96654
1788 Au 0 LAT Au 0 0.000 196.96654
1789 Au 0 LAT Au 0 0.000 196.96654
1790 Au 0 LAT Au 0 0.000 196.96654
1791 Au 0 LAT Au 0 0.000 196.96654
1792 Au 0 LAT Au 0 0.000 196.96654
1793 Au 0 LAT Au 0 0.000 196.96654
1794 Au 0 LAT Au 0 0.000 196.96654
1795 Au 0 LAT Au 0 0.000 196.96654
1796 Au 0 LAT Au 0 0.000 196.96654
1797 Au 0 LAT Au 0 0.000 196.96654
1798 Au 0 LAT Au 0 0.000 196.96654
1799 Au 0 LAT Au 0 0.000 196.96654
1800 Au 0 LAT Au 0 0.000 196.96654
1801 Au 0 LAT Au 0 0.000 196.96654
1802 Au 0 LAT Au 0 0.000 196.96654
1803 Au 0 LAT Au 0 0.000 196.96654
1804 Au 0 LAT Au 0 0.000 196.96654
1805 Au 0 LAT Au 0 0.000 196.96654
1806 Au 0 LAT Au 0 0.000 196.96654
1807 Au 0 LAT Au 0 0.000 196.96654
1808 Au 0 LAT Au 0 0.000 196.96654
1809 Au 0 LAT Au 0 0.000 196.96654
1810 Au 0 LAT Au 0 0.000 196.96654
1811 Au 0 LAT Au 0 0.000 196.96654
1812 Au 0 LAT Au 0 0.000 196.96654
1813 Au 0 LAT Au 0 0.000 196.96654
1814 Au 0 LAT Au 0 0.000 196.96654
1815 Au 0 LAT Au 0 0.000 196.96654
1816 Au 0 LAT Au 0 0.000 196.96654
1817 Au 0 LAT Au 0 0.000 196.96654
1818 Au 0 LAT Au 0 0.000 196.96654
1819 Au 0 LAT Au 0 0.000 196.96654
1820 Au 0 LAT Au 0 0.000 196.96654
1821 Au 0 LAT Au 0 0.000 196.96654
1822 Au 0 LAT Au 0 0.000 196.96654
1823 Au 0 LAT Au 0 0.000 196.96654
1824 Au 0 LAT Au 0 0.000 196.96654
1825 Au 0 LAT Au 0 0.000 196.96654
1826 Au 0 LAT Au 0 0.000 196.96654
1827 Au 0 LAT Au 0 0.000 196.96654
1828 Au 0 LAT Au 0 0.000 196.96654
1829 Au 0 LAT Au 0 0.000 196.96654
1830 Au 0 LAT Au 0 0.000 196.96654
1831 Au 0 LAT Au 0 0.000 196.96654
1832 Au 0 LAT Au 0 0.000 196.96654
1833 Au 0 LAT Au 0 0.000 196.96654
1834 Au 0 LAT Au 0 0.000 196.96654
1835 Au 0 LAT Au 0 0.000 196.96654
1836 Au 0 LAT Au 0 0.000 196.96654
1837 Au 0 LAT Au 0 0.000 196.96654
1838 Au 0 LAT Au 0 0.000 196.96654
1839 Au 0 LAT Au 0 0.000 196.96654
1840 Au 0 LAT Au 0 0.000 196.96654
1841 Au 0 LAT Au 0 0.000 196.96654
1842 Au 0 LAT Au 0 0.000 196.96654
1843 Au 0 LAT Au 0 0.000 196.96654
1844 Au 0 LAT Au 0 0.000 196.96654
1845 Au 0 LAT Au 0 0.000 196.96654
1846 Au 0 LAT Au 0 0.000 196.96654
1847 Au 0 LAT Au 0 0.000 196.96654
1848 Au 0 LAT Au 0 0.000 196.96654
1849 Au 0 LAT Au 0 0.000 196.96654
1850 Au 0 LAT Au 0 0.000 196.96654
1851 Au 0 LAT Au 0 0.000 196.96654
1852 Au 0 LAT Au 0 0.000 196.96654
1853 Au 0 LAT Au 0 0.000 196.96654
1854 Au 0 LAT Au 0 0.000 196.96654
1855 Au 0 LAT Au 0 0.000 196.96654
1856 Au 0 LAT Au 0 0.000 196.96654
1857 Au 0 LAT Au 0 0.000 196.96654
1858 Au 0 LAT Au 0 0.000 196.96654
1859 Au 0 LAT Au 0 0.000 196.96654
1860 Au 0 LAT Au 0 0.000 196.96654
1861 Au 0 LAT Au 0 0.000 196.96654
1862 Au 0 LAT Au 0 0.000 196.96654
1863 Au 0 LAT Au 0 0.000 196.96654
1864 Au 0 LAT Au 0 0.000 196.96654
1865 Au 0 LAT Au 0 0.000 196.96654
1866 Au 0 LAT Au 0 0.000 196.96654
1867 Au 0 LAT Au 0 0.000 196.96654
1868 Au 0 LAT Au 0 0.000 196.96654
1869 Au 0 LAT Au 0 0.000 196.96654
1870 Au 0 LAT Au 0 0.000 196.96654
1871 Au 0 LAT Au 0 0.000 196.96654
1872 Au 0 LAT Au 0 0.000 196.96654
1873 Au 0 LAT Au 0 0.000 196.96654
1874 Au 0 LAT Au 0 0.000 196.96654
1875 Au 0 LAT Au 0 0.000 196.96654
1876 Au 0 LAT Au 0 0.000 196.96654
1877 Au 0 LAT Au 0 0.000 196.96654
1878 Au 0 LAT Au 0 0.000 196.96654
1879 Au 0 LAT Au 0 0.000 196.96654
1880 Au 0 LAT Au 0 0.000 196.96654
1881 Au 0 LAT Au 0 0.000 196.96654
1882 Au 0 LAT Au 0 0.000 196.96654
1883 Au 0 LAT Au 0 0.000 196.96654
1884 Au 0 LAT Au 0 0.000 196.96654
1885 Au 0 LAT Au 0 0.000 196.96654
1886 Au 0 LAT Au 0 0.000 196.96654
1887 Au 0 LAT Au 0 0.000 196.96654
1888 Au 0 LAT Au 0 0.000 196.96654
1889 Au 0 LAT Au 0 0.000 196.96654
1890 Au 0 LAT Au 0 0.000 196.96654
1891 Au 0 LAT Au 0 0.000 196.96654
1892 Au 0 LAT Au 0 0.000 196.96654
1893 Au 0 LAT Au 0 0.000 196.96654
1894 Au 0 LAT Au 0 0.000 196.96654
1895 Au 0 LAT Au 0 0.000 196.96654
1896 Au 0 LAT Au 0 0.000 196.96654
1897 Au 0 LAT Au 0 0.000 196.96654
1898 Au 0 LAT Au 0 0.000 196.96654
1899 Au 0 LAT Au 0 0.000 196.96654
1900 Au 0 LAT Au 0 0.000 196.96654
1901 Au 0 LAT Au 0 0.000 196.96654
1902 Au 0 LAT Au 0 0.000 196.96654
1903 Au 0 LAT Au 0 0.000 196.96654
1904 Au 0 LAT Au 0 0.000 196.96654
1905 Au 0 LAT Au 0 0.000 196.96654
1906 Au 0 LAT Au 0 0.000 196.96654
1907 Au 0 LAT Au 0 0.000 196.96654
1908 Au 0 LAT Au 0 0.000 196.96654
1909 Au 0 LAT Au 0 0.000 196.96654
1910 Au 0 LAT Au 0 0.000 196.96654
1911 Au 0 LAT Au 0 0.000 196.96654
1912 Au 0 LAT Au 0 0.000 196.96654
1913 Au 0 LAT Au 0 0.000 196.96654
1914 Au 0 LAT Au 0 0.000 196.96654
1915 Au 0 LAT Au 0 0.000 196.96654
1916 Au 0 LAT Au 0 0.000 196.96654
1917 Au 0 LAT Au 0 0.000 196.96654
1918 Au 0 LAT Au 0 0.000 196.96654
1919 Au 0 LAT Au 0 0.000 196.96654
1920 Au 0 LAT Au 0 0.000 196.96654
1921 Au 0 LAT Au 0 0.000 196.96654
1922 Au 0 LAT Au 0 0.000 196.96654
1923 Au 0 LAT Au 0 0.000 196.96654
1924 Au 0 LAT Au 0 0.000 196.96654
1925 Au 0 LAT Au 0 0.000 196.96654
1926 Au 0 LAT Au 0 0.000 196.96654
1927 Au 0 LAT Au 0 0.000 196.96654
1928 Au 0 LAT Au 0 0.000 196.96654
1929 Au 0 LAT Au 0 0.000 196.96654
1930 Au 0 LAT Au 0 0.000 196.96654
1931 Au 0 LAT Au 0 0.000 196.96654
1932 Au 0 LAT Au 0 0.000 196.96654
1933 Au 0 LAT Au 0 0.000 196.96654
1934 Au 0 LAT Au 0 0.000 196.96654
1935 Au 0 LAT Au 0 0.000 196.96654
1936 Au 0 LAT Au 0 0.000 196.96654
1937 Au 0 LAT Au 0 0.000 196.96654
1938 Au 0 LAT Au 0 0.000 196.96654
1939 Au 0 LAT Au 0 0.000 196.96654
1940 Au 0 LAT Au 0 0.000 196.96654
1941 Au 0 LAT Au 0 0.000 196.96654
1942 Au 0 LAT Au 0 0.000 196.96654
1943 Au 0 LAT Au 0 0.000 196.96654
1944 Au 0 LAT Au 0 0.000 196.96654
1945 Au 0 LAT Au 0 0.000 196.96654
1946 Au 0 LAT Au 0 0.000 196.96654
1947 Au 0 LAT Au 0 0.000 196.96654
1948 Au 0 LAT Au 0 0.000 196.96654
1949 Au 0 LAT Au 0 0.000 196.96654
1950 Au 0 LAT Au 0 0.000 196.96654
1951 Au 0 LAT Au 0 0.000 196.96654
1952 Au 0 LAT Au 0 0.000 196.96654
1953 Au 0 LAT Au 0 0.000 196.96654
1954 Au 0 LAT Au 0 0.000 196.96654
1955 Au 0 LAT Au 0 0.000 196.96654
1956 Au 0 LAT Au 0 0.000 196.96654
1957 Au 0 LAT Au 0 0.000 196.96654
1958 Au 0 LAT Au 0 0.000 196.96654
1959 Au 0 LAT Au 0 0.000 196.96654
1960 Au 0 LAT Au 0 0.000 196.96654
1961 Au 0 LAT Au 0 0.000 196.96654
1962 Au 0 LAT Au 0 0.000 196.96654
1963 Au 0 LAT Au 0 0.000 196.96654
1964 Au 0 LAT Au 0 0.000 196.96654
1965 Au 0 LAT Au 0 0.000 196.96654
1966 Au 0 LAT Au 0 0.000 196.96654
1967 Au 0 LAT Au 0 0.000 196.96654
1968 Au 0 LAT Au 0 0.000 196.96654
1969 Au 0 LAT Au 0 0.000 196.96654
1970 Au 0 LAT Au 0 0.000 196.96654
1971 Au 0 LAT Au 0 0.000 196.96654
1972 Au 0 LAT Au 0 0.000 196.96654
1973 Au 0 LAT Au 0 0.000 196.96654
1974 Au 0 LAT Au 0 0.000 196.96654
1975 Au 0 LAT Au 0 0.000 196.96654
1976 Au 0 LAT Au 0 0.000 196.96654
1977 Au 0 LAT Au 0 0.000 196.96654
1978 Au 0 LAT Au 0 0.000 196.96654
1979 Au 0 LAT Au 0 0.000 196.96654
1980 Au 0 LAT Au 0 0.000 196.96654
1981 Au 0 LAT Au 0 0.000 196.96654
1982 Au 0 LAT Au 0 0.000 196.96654
1983 Au 0 LAT Au 0 0.000 196.96654
1984 Au 0 LAT Au 0 0.000 196.96654
1985 Au 0 LAT Au 0 0.000 196.96654
1986 Au 0 LAT Au 0 0.000 196.96654
1987 Au 0 LAT Au 0 0.000 196.96654
1988 Au 0 LAT Au 0 0.000 196.96654
1989 Au 0 LAT Au 0 0.000 196.96654
1990 Au 0 LAT Au 0 0.000 196.96654
1991 Au 0 LAT Au 0 0.000 196.96654
1992 Au 0 LAT Au 0 0.000 196.96654
1993 Au 0 LAT Au 0 0.000 196.96654
1994 Au 0 LAT Au 0 0.000 196.96654
1995 Au 0 LAT Au 0 0.000 196.96654
1996 Au 0 LAT Au 0 0.000 196.96654
1997 Au 0 LAT Au 0 0.000 196.96654
1998 Au 0 LAT Au 0 0.000 196.96654
1999 Au 0 LAT Au 0 0.000 196.96654
2000 Au 0 LAT Au 0 0.000 196.96654
2001 Au 0 LAT Au 0 0.000 196.96654
2002 Au 0 LAT Au 0 0.000 196.96654
2003 Au 0 LAT Au 0 0.000 196.96654
2004 Au 0 LAT Au 0 0.000 196.96654
2005 Au 0 LAT Au 0 0.000 196.96654
2006 Au 0 LAT Au 0 0.000 196.96654
2007 Au 0 LAT Au 0 0.000 196.96654
2008 Au 0 LAT Au 0 0.000 196.96654
2009 Au 0 LAT Au 0 0.000 196.96654
2010 Au 0 LAT Au 0 0.000 196.96654
2011 Au 0 LAT Au 0 0.000 196.96654
2012 Au 0 LAT Au 0 0.000 196.96654
2013 Au 0 LAT Au 0 0.000 196.96654
2014 Au 0 LAT Au 0 0.000 196.96654
2015 Au 0 LAT Au 0 0.000 196.96654
2016 Au 0 LAT Au 0 0.000 196.96654
2017 Au 0 LAT Au 0 0.000 196.96654
2018 Au 0 LAT Au 0 0.000 196.96654
2019 Au 0 LAT Au 0 0.000 196.96654
2020 Au 0 LAT Au 0 0.000 196.96654
2021 Au 0 LAT Au 0 0.000 196.96654
2022 Au 0 LAT Au 0 0.000 196.96654
2023 Au 0 LAT Au 0 0.000 196.96654
2024 Au 0 LAT Au 0 0.000 196.96654
2025 Au 0 LAT Au 0 0.000 196.96654
2026 Au 0 LAT Au 0 0.000 196.96654
2027 Au 0 LAT Au 0 0.000 196.96654
2028 Au 0 LAT Au 0 0.000 196.96654
2029 Au 0 LAT Au 0 0.000 196.96654
2030 Au 0 LAT Au 0 0.000 196.96654
2031 Au 0 LAT Au 0 0.000 196.96654
2032 Au 0 LAT Au 0 0.000 196.96654
2033 Au 0 LAT Au 0 0.000 196.96654
2034 Au 0 LAT Au 0 0.000 196.96654
2035 Au 0 LAT Au 0 0.000 196.96654
2036 Au 0 LAT Au 0 0.000 196.96654
2037 Au 0 LAT Au 0 0.000 196.96654
2038 Au 0 LAT Au 0 0.000 196.96654
2039 Au 0 LAT Au 0 0.000 196.96654
2040 Au 0 LAT Au 0 0.000 196.96654
2041 Au 0 LAT Au 0 0.000 196.96654
2042 Au 0 LAT Au 0 0.000 196.96654
2043 Au 0 LAT Au 0 0.000 196.96654
2044 Au 0 LAT Au 0 0.000 196.96654
2045 Au 0 LAT Au 0 0.000 196.96654
2046 Au 0 LAT Au 0 0.000 196.96654
2047 Au 0 LAT Au 0 0.000 196.96654
2048 Au 0 LAT Au 0 0.000 196.96654
2049 Au 0 LAT Au 0 0.000 196.96654
2050 Au 0 LAT Au 0 0.000 196.96654
2051 Au 0 LAT Au 0 0.000 196.96654
2052 Au 0 LAT Au 0 0.000 196.96654
2053 Au 0 LAT Au 0 0.000 196.96654
2054 Au 0 LAT Au 0 0.000 196.96654
2055 Au 0 LAT Au 0 0.000 196.96654
2056 Au 0 LAT Au 0 0.000 196.96654
2057 Au 0 LAT Au 0 0.000 196.96654
2058 Au 0 LAT Au 0 0.000 196.96654
2059 Au 0 LAT Au 0 0.000 196.96654
2060 Au 0 LAT Au 0 0.000 196.96654
2061 Au 0 LAT Au 0 0.000 196.96654
2062 Au 0 LAT Au 0 0.000 196.96654
2063 Au 0 LAT Au 0 0.000 196.96654
2064 Au 0 LAT Au 0 0.000 196.96654
2065 Au 0 LAT Au 0 0.000 196.96654
2066 Au 0 LAT Au 0 0.000 196.96654
2067 Au 0 LAT Au 0 0.000 196.96654
2068 Au 0 LAT Au 0 0.000 196.96654
2069 Au 0 LAT Au 0 0.000 196.96654
2070 Au 0 LAT Au 0 0.000 196.96654
2071 Au 0 LAT Au 0 0.000 196.96654
2072 Au 0 LAT Au 0 0.000 196.96654
2073 Au 0 LAT Au 0 0.000 196.96654
2074 Au 0 LAT Au 0 0.000 196.96654
2075 Au 0 LAT Au 0 0.000 196.96654
2076 Au 0 LAT Au 0 0.000 196.96654
2077 Au 0 LAT Au 0 0.000 196.96654
2078 Au 0 LAT Au 0 0.000 196.96654
2079 Au 0 LAT Au 0 0.000 196.96654
2080 Au 0 LAT Au 0 0.000 196.96654
2081 Au 0 LAT Au 0 0.000 196.96654
2082 Au 0 LAT Au 0 0.000 196.96654
2083 Au 0 LAT Au 0 0.000 196.96654
2084 Au 0 LAT Au 0 0.000 196.96654
2085 Au 0 LAT Au 0 0.000 196.96654
2086 Au 0 LAT Au 0 0.000 196.96654
2087 Au 0 LAT Au 0 0.000 196.96654
2088 Au 0 LAT Au 0 0.000 196.96654
2089 Au 0 LAT Au 0 0.000 196.96654
2090 Au 0 LAT Au 0 0.000 196.96654
2091 Au 0 LAT Au 0 0.000 196.96654
2092 Au 0 LAT Au 0 0.000 196.96654
2093 Au 0 LAT Au 0 0.000 196.96654
2094 Au 0 LAT Au 0 0.000 196.96654
2095 Au 0 LAT Au 0 0.000 196.96654
2096 Au 0 LAT Au 0 0.000 196.96654
2097 Au 0 LAT Au 0 0.000 196.96654
2098 Au 0 LAT Au 0 0.000 196.96654
2099 Au 0 LAT Au 0 0.000 196.96654
2100 Au 0 LAT Au 0 0.000 196.96654
2101 Au 0 LAT Au 0 0.000 196.96654
2102 Au 0 LAT Au 0 0.000 196.96654
2103 Au 0 LAT Au 0 0.000 196.96654
2104 Au 0 LAT Au 0 0.000 196.96654
2105 Au 0 LAT Au 0 0.000 196.96654
2106 Au 0 LAT Au 0 0.000 196.96654
2107 Au 0 LAT Au 0 0.000 196.96654
2108 Au 0 LAT Au 0 0.000 196.96654
2109 Au 0 LAT Au 0 0.000 196.96654
2110 Au 0 LAT Au 0 0.000 196.96654
2111 Au 0 LAT Au 0 0.000 196.96654
2112 Au 0 LAT Au 0 0.000 196.96654
2113 Au 0 LAT Au 0 0.000 196.96654
2114 Au 0 LAT Au 0 0.000 196.96654
2115 Au 0 LAT Au 0 0.000 196.96654
2116 Au 0 LAT Au 0 0.000 196.96654
2117 Au 0 LAT Au 0 0.000 196.96654
2118 Au 0 LAT Au 0 0.000 196.96654
2119 Au 0 LAT Au 0 0.000 196.96654
2120 Au 0 LAT Au 0 0.000 196.96654
2121 Au 0 LAT Au 0 0.000 196.96654
2122 Au 0 LAT Au 0 0.000 196.96654
2123 Au 0 LAT Au 0 0.000 196.96654
2124 Au 0 LAT Au 0 0.000 196.96654
2125 Au 0 LAT Au 0 0.000 196.96654
2126 Au 0 LAT Au 0 0.000 196.96654
2127 Au 0 LAT Au 0 0.000 196.96654
2128 Au 0 LAT Au 0 0.000 196.96654
2129 Au 0 LAT Au 0 0.000 196.96654
2130 Au 0 LAT Au 0 0.000 196.96654
2131 Au 0 LAT Au 0 0.000 196.96654
2132 Au 0 LAT Au 0 0.000 196.96654
2133 Au 0 LAT Au 0 0.000 196.96654
2134 Au 0 LAT Au 0 0.000 196.96654
2135 Au 0 LAT Au 0 0.000 196.96654
2136 Au 0 LAT Au 0 0.000 196.96654
2137 Au 0 LAT Au 0 0.000 196.96654
2138 Au 0 LAT Au 0 0.000 196.96654
2139 Au 0 LAT Au 0 0.000 196.96654
2140 Au 0 LAT Au 0 0.000 196.96654
2141 Au 0 LAT Au 0 0.000 196.96654
2142 Au 0 LAT Au 0 0.000 196.96654
2143 Au 0 LAT Au 0 0.000 196.96654
2144 Au 0 LAT Au 0 0.000 196.96654
2145 Au 0 LAT Au 0 0.000 196.96654
2146 Au 0 LAT Au 0 0.000 196.96654
2147 Au 0 LAT Au 0 0.000 196.96654
2148 Au 0 LAT Au 0 0.000 196.96654
2149 Au 0 LAT Au 0 0.000 196.96654
2150 Au 0 LAT Au 0 0.000 196.96654
2151 Au 0 LAT Au 0 0.000 196.96654
2152 Au 0 LAT Au 0 0.000 196.96654
2153 Au 0 LAT Au 0 0.000 196.96654
2154 Au 0 LAT Au 0 0.000 196.96654
2155 Au 0 LAT Au 0 0.000 196.96654
2156 Au 0 LAT Au 0 0.000 196.96654
2157 Au 0 LAT Au 0 0.000 196.96654
2158 Au 0 LAT Au 0 0.000 196.96654
2159 Au 0 LAT Au 0 0.000 196.96654
2160 Au 0 LAT Au 0 0.000 196.96654
2161 Au 0 LAT Au 0 0.000 196.96654
2162 Au 0 LAT Au 0 0.000 196.96654
2163 Au 0 LAT Au 0 0.000 196.96654
2164 Au 0 LAT Au 0 0.000 196.96654
2165 Au 0 LAT Au 0 0.000 196.96654
2166 Au 0 LAT Au 0 0.000 196.96654
2167 Au 0 LAT Au 0 0.000 196.96654
2168 Au 0 LAT Au 0 0.000 196.96654
2169 Au 0 LAT Au 0 0.000 196.96654
2170 Au 0 LAT Au 0 0.000 196.96654
2171 Au 0 LAT Au 0 0.000 196.96654
2172 Au 0 LAT Au 0 0.000 196.96654
2173 Au 0 LAT Au 0 0.000 196.96654
2174 Au 0 LAT Au 0 0.000 196.96654
2175 Au 0 LAT Au 0 0.000 196.96654
2176 Au 0 LAT Au 0 0.000 196.96654
2177 Au 0 LAT Au 0 0.000 196.96654
2178 Au 0 LAT Au 0 0.000 196.96654
2179 Au 0 LAT Au 0 0.000 196.96654
2180 Au 0 LAT Au 0 0.000 196.96654
2181 Au 0 LAT Au 0 0.000 196.96654
2182 Au 0 LAT Au 0 0.000 196.96654
2183 Au 0 LAT Au 0 0.000 196.96654
2184 Au 0 LAT Au 0 0.000 196.96654
2185 Au 0 LAT Au 0 0.000 196.96654
2186 Au 0 LAT Au 0 0.000 196.96654
2187 Au 0 LAT Au 0 0.000 196.96654
2188 Au 0 LAT Au 0 0.000 196.96654
2189 Au 0 LAT Au 0 0.000 196.96654
2190 Au 0 LAT Au 0 0.000 196.96654
2191 Au 0 LAT Au 0 0.000 196.96654
2192 Au 0 LAT Au 0 0.000 196.96654
2193 Au 0 LAT Au 0 0.000 196.96654
2194 Au 0 LAT Au 0 0.000 196.96654
2195 Au 0 LAT Au 0 0.000 196.96654
2196 Au 0 LAT Au 0 0.000 196.96654
2197 Au 0 LAT Au 0 0.000 196.96654
2198 Au 0 LAT Au 0 0.000 196.96654
2199 Au 0 LAT Au 0 0.000 196.96654
2200 Au 0 LAT Au 0 0.000 196.96654
2201 Au 0 LAT Au 0 0.000 196.96654
2202 Au 0 LAT Au 0 0.000 196.96654
2203 Au 0 LAT Au 0 0.000 196.96654
2204 Au 0 LAT Au 0 0.000 196.96654
2205 Au 0 LAT Au 0 0.000 196.96654
2206 Au 0 LAT Au 0 0.000 196.96654
2207 Au 0 LAT Au 0 0.000 196.96654
2208 Au 0 LAT Au 0 0.000 196.96654
2209 Au 0 LAT Au 0 0.000 196.96654
2210 Au 0 LAT Au 0 0.000 196.96654
2211 Au 0 LAT Au 0 0.000 196.96654
2212 Au 0 LAT Au 0 0.000 196.96654
2213 Au 0 LAT Au 0 0.000 196.96654
2214 Au 0 LAT Au 0 0.000 196.96654
2215 Au 0 LAT Au 0 0.000 196.96654
2216 Au 0 LAT Au 0 0.000 196.96654
2217 Au 0 LAT Au 0 0.000 196.96654
2218 Au 0 LAT Au 0 0.000 196.96654
2219 Au 0 LAT Au 0 0.000 196.96654
2220 Au 0 LAT Au 0 0.000 196.96654
2221 Au 0 LAT Au 0 0.000 196.96654
2222 Au 0 LAT Au 0 0.000 196.96654
2223 Au 0 LAT Au 0 0.000 196.96654
2224 Au 0 LAT Au 0 0.000 196.96654
2225 Au 0 LAT Au 0 0.000 196.96654
2226 Au 0 LAT Au 0 0.000 196.96654
2227 Au 0 LAT Au 0 0.000 196.96654
2228 Au 0 LAT Au 0 0.000 196.96654
2229 Au 0 LAT Au 0 0.000 196.96654
2230 Au 0 LAT Au 0 0.000 196.96654
2231 Au 0 LAT Au 0 0.000 196.96654
2232 Au 0 LAT Au 0 0.000 196.96654
2233 Au 0 LAT Au 0 0.000 196.96654
2234 Au 0 LAT Au 0 0.000 196.96654
2235 Au 0 LAT Au 0 0.000 196.96654
2236 Au 0 LAT Au 0 0.000 196.96654
2237 Au 0 LAT Au 0 0.000 196.96654
2238 Au 0 LAT Au 0 0.000 196.96654
2239 Au 0 LAT Au 0 0.000 196.96654
2240 Au 0 LAT Au 0 0.000 196.96654
2241 Au 0 LAT Au 0 0.000 196.96654
2242 Au 0 LAT Au 0 0.000 196.96654
2243 Au 0 LAT Au 0 0.000 196.96654
2244 Au 0 LAT Au 0 0.000 196.96654
2245 Au 0 LAT Au 0 0.000 196.96654
2246 Au 0 LAT Au 0 0.000 196.96654
2247 Au 0 LAT Au 0 0.000 196.96654
2248 Au 0 LAT Au 0 0.000 196.96654
2249 Au 0 LAT Au 0 0.000 196.96654
2250 Au 0 LAT Au 0 0.000 196.96654
2251 Au 0 LAT Au 0 0.000 196.96654
2252 Au 0 LAT Au 0 0.000 196.96654
2253 Au 0 LAT Au 0 0.000 196.96654
2254 Au 0 LAT Au 0 0.000 196.96654
2255 Au 0 LAT Au 0 0.000 196.96654
2256 Au 0 LAT Au 0 0.000 196.96654
2257 Au 0 LAT Au 0 0.000 196.96654
2258 Au 0 LAT Au 0 0.000 196.96654
2259 Au 0 LAT Au 0 0.000 196.96654
2260 Au 0 LAT Au 0 0.000 196.96654
2261 Au 0 LAT Au 0 0.000 196.96654
2262 Au 0 LAT Au 0 0.000 196.96654
2263 Au 0 LAT Au 0 0.000 196.96654
2264 Au 0 LAT Au 0 0.000 196.96654
2265 Au 0 LAT Au 0 0.000 196.96654
2266 Au 0 LAT Au 0 0.000 196.96654
2267 Au 0 LAT Au 0 0.000 196.96654
2268 Au 0 LAT Au 0 0.000 196.96654
2269 Au 0 LAT Au 0 0.000 196.96654
2270 Au 0 LAT Au 0 0.000 196.96654
2271 Au 0 LAT Au 0 0.000 196.96654
2272 Au 0 LAT Au 0 0.000 196.96654
2273 Au 0 LAT Au 0 0.000 196.96654
2274 Au 0 LAT Au 0 0.000 196.96654
2275 Au 0 LAT Au 0 0.000 196.96654
2276 Au 0 LAT Au 0 0.000 196.96654
2277 Au 0 LAT Au 0 0.000 196.96654
2278 Au 0 LAT Au 0 0.000 196.96654
2279 Au 0 LAT Au 0 0.000 196.96654
2280 Au 0 LAT Au 0 0.000 196.96654
2281 Au 0 LAT Au 0 0.000 196.96654
2282 Au 0 LAT Au 0 0.000 196.96654
2283 Au 0 LAT Au 0 0.000 196.96654
2284 Au 0 LAT Au 0 0.000 196.96654
2285 Au 0 LAT Au 0 0.000 196.96654
2286 Au 0 LAT Au 0 0.000 196.96654
2287 Au 0 LAT Au 0 0.000 196.96654
2288 Au 0 LAT Au 0 0.000 196.96654
2289 Au 0 LAT Au 0 0.000 196.96654
2290 Au 0 LAT Au 0 0.000 196.96654
2291 Au 0 LAT Au 0 0.000 196.96654
2292 Au 0 LAT Au 0 0.000 196.96654
2293 Au 0 LAT Au 0 0.000 196.96654
2294 Au 0 LAT Au 0 0.000 196.96654
2295 Au 0 LAT Au 0 0.000 196.96654
2296 Au 0 LAT Au 0 0.000 196.96654
2297 Au 0 LAT Au 0 0.000 196.96654
2298 Au 0 LAT Au 0 0.000 196.96654
2299 Au 0 LAT Au 0 0.000 196.96654
2300 Au 0 LAT Au 0 0.000 196.96654
2301 Au 0 LAT Au 0 0.000 196.96654
2302 Au 0 LAT Au 0 0.000 196.96654
2303 Au 0 LAT Au 0 0.000 196.96654
2304 Au 0 LAT Au 0 0.000 196.96654
2305 Au 0 LAT Au 0 0.000 196.96654
2306 Au 0 LAT Au 0 0.000 196.96654
2307 Au 0 LAT Au 0 0.000 196.96654
2308 Au 0 LAT Au 0 0.000 196.96654
2309 Au 0 LAT Au 0 0.000 196.96654
2310 Au 0 LAT Au 0 0.000 196.96654
2311 Au 0 LAT Au 0 0.000 196.96654
2312 Au 0 LAT Au 0 0.000 196.96654
2313 Au 0 LAT Au 0 0.000 196.96654
2314 Au 0 LAT Au 0 0.000 196.96654
2315 Au 0 LAT Au 0 0.000 196.96654
2316 Au 0 LAT Au 0 0.000 196.96654
2317 Au 0 LAT Au 0 0.000 196.96654
2318 Au 0 LAT Au 0 0.000 196.96654
2319 Au 0 LAT Au 0 0.000 196.96654
2320 Au 0 LAT Au 0 0.000 196.96654
2321 Au 0 LAT Au 0 0.000 196.96654
2322 Au 0 LAT Au 0 0.000 196.96654
2323 Au 0 LAT Au 0 0.000 196.96654
2324 Au 0 LAT Au 0 0.000 196.96654
2325 Au 0 LAT Au 0 0.000 196.96654
2326 Au 0 LAT Au 0 0.000 196.96654
2327 Au 0 LAT Au 0 0.000 196.96654
2328 Au 0 LAT Au 0 0.000 196.96654
2329 Au 0 LAT Au 0 0.000 196.96654
2330 Au 0 LAT Au 0 0.000 196.96654
2331 Au 0 LAT Au 0 0.000 196.96654
2332 Au 0 LAT Au 0 0.000 196.96654
2333 Au 0 LAT Au 0 0.000 196.96654
2334 Au 0 LAT Au 0 0.000 196.96654
2335 Au 0 LAT Au 0 0.000 196.96654
2336 Au 0 LAT Au 0 0.000 196.96654
2337 Au 0 LAT Au 0 0.000 196.96654
2338 Au 0 LAT Au 0 0.000 196.96654
2339 Au 0 LAT Au 0 0.000 196.96654
2340 Au 0 LAT Au 0 0.000 196.96654
2341 Au 0 LAT Au 0 0.000 196.96654
2342 Au 0 LAT Au 0 0.000 196.96654
2343 Au 0 LAT Au 0 0.000 196.96654
2344 Au 0 LAT Au 0 0.000 196.96654
2345 Au 0 LAT Au 0 0.000 196.96654
2346 Au 0 LAT Au 0 0.000 196.96654
2347 Au 0 LAT Au 0 0.000 196.96654
2348 Au 0 LAT Au 0 0.000 196.96654
2349 Au 0 LAT Au 0 0.000 196.96654
2350 Au 0 LAT Au 0 0.000 196.96654
2351 Au 0 LAT Au 0 0.000 196.96654
2352 Au 0 LAT Au 0 0.000 196.96654
2353 Au 0 LAT Au 0 0.000 196.96654
2354 Au 0 LAT Au 0 0.000 196.96654
2355 Au 0 LAT Au 0 0.000 196.96654
2356 Au 0 LAT Au 0 0.000 196.96654
2357 Au 0 LAT Au 0 0.000 196.96654
2358 Au 0 LAT Au 0 0.000 196.96654
2359 Au 0 LAT Au 0 0.000 196.96654
2360 Au 0 LAT Au 0 0.000 196.96654
2361 Au 0 LAT Au 0 0.000 196.96654
2362 Au 0 LAT Au 0 0.000 196.96654
2363 Au 0 LAT Au 0 0.000 196.96654
2364 Au 0 LAT Au 0 0.000 196.96654
2365 Au 0 LAT Au 0 0.000 196.96654
2366 Au 0 LAT Au 0 0.000 196.96654
2367 Au 0 LAT Au 0 0.000 196.96654
2368 Au 0 LAT Au 0 0.000 196.96654
2369 Au 0 LAT Au 0 0.000 196.96654
2370 Au 0 LAT Au 0 0.000 196.96654
2371 Au 0 LAT Au 0 0.000 196.96654
2372 Au 0 LAT Au 0 0.000 196.96654
2373 Au 0 LAT Au 0 0.000 196.96654
2374 Au 0 LAT Au 0 0.000 196.96654
2375 Au 0 LAT Au 0 0.000 196.96654
2376 Au 0 LAT Au 0 0.000 196.96654
2377 Au 0 LAT Au 0 0.000 196.96654
2378 Au 0 LAT Au 0 0.000 196.96654
2379 Au 0 LAT Au 0 0.000 196.96654
2380 Au 0 LAT Au 0 0.000 196.96654
2381 Au 0 LAT Au 0 0.000 196.96654
2382 Au 0 LAT Au 0 0.000 196.96654
2383 Au 0 LAT Au 0 0.000 196.96654
2384 Au 0 LAT Au 0 0.000 196.96654
2385 Au 0 LAT Au 0 0.000 196.96654
2386 Au 0 LAT Au 0 0.000 196.96654
2387 Au 0 LAT Au 0 0.000 196.96654
2388 Au 0 LAT Au 0 0.000 196.96654
2389 Au 0 LAT Au 0 0.000 196.96654
2390 Au 0 LAT Au 0 0.000 196.96654
2391 Au 0 LAT Au 0 0.000 196.96654
2392 Au 0 LAT Au 0 0.000 196.96654
2393 Au 0 LAT Au 0 0.000 196.96654
2394 Au 0 LAT Au 0 0.000 196.96654
2395 Au 0 LAT Au 0 0.000 196.96654
2396 Au 0 LAT Au 0 0.000 196.96654
2397 Au 0 LAT Au 0 0.000 196.96654
2398 Au 0 LAT Au 0 0.000 196.96654
2399 Au 0 LAT Au 0 0.000 196.96654
2400 Au 0 LAT Au 0 0.000 196.96654
2401 Au 0 LAT Au 0 0.000 196.96654
2402 Au 0 LAT Au 0 0.000 196.96654
2403 Au 0 LAT Au 0 0.000 196.96654
2404 Au 0 LAT Au 0 0.000 196.96654
2405 Au 0 LAT Au 0 0.000 196.96654
2406 Au 0 LAT Au 0 0.000 196.96654
2407 Au 0 LAT Au 0 0.000 196.96654
2408 Au 0 LAT Au 0 0.000 196.96654
2409 Au 0 LAT Au 0 0.000 196.96654
2410 Au 0 LAT Au 0 0.000 196.96654
2411 Au 0 LAT Au 0 0.000 196.96654
2412 Au 0 LAT Au 0 0.000 196.96654
2413 Au 0 LAT Au 0 0.000 196.96654
2414 Au 0 LAT Au 0 0.000 196.96654
2415 Au 0 LAT Au 0 0.000 196.96654
2416 Au 0 LAT Au 0 0.000 196.96654
2417 Au 0 LAT Au 0 0.000 196.96654
2418 Au 0 LAT Au 0 0.000 196.96654
2419 Au 0 LAT Au 0 0.000 196.96654
2420 Au 0 LAT Au 0 0.000 196.96654
2421 Au 0 LAT Au 0 0.000 196.96654
2422 Au 0 LAT Au 0 0.000 196.96654
2423 Au 0 LAT Au 0 0.000 196.96654
2424 Au 0 LAT Au 0 0.000 196.96654
2425 Au 0 LAT Au 0 0.000 196.96654
2426 Au 0 LAT Au 0 0.000 196.96654
2427 Au 0 LAT Au 0 0.000 196.96654
2428 Au 0 LAT Au 0 0.000 196.96654
2429 Au 0 LAT Au 0 0.000 196.96654
2430 Au 0 LAT Au 0 0.000 196.96654
2431 Au 0 LAT Au 0 0.000 196.96654
2432 Au 0 LAT Au 0 0.000 196.96654
2433 Au 0 LAT Au 0 0.000 196.96654
2434 Au 0 LAT Au 0 0.000 196.96654
2435 Au 0 LAT Au 0 0.000 196.96654
2436 Au 0 LAT Au 0 0.000 196.96654
2437 Au 0 LAT Au 0 0.000 196.96654
2438 Au 0 LAT Au 0 0.000 196.96654
2439 Au 0 LAT Au 0 0.000 196.96654
2440 Au 0 LAT Au 0 0.000 196.96654
2441 Au 0 LAT Au 0 0.000 196.96654
2442 Au 0 LAT Au 0 0.000 196.96654
2443 Au 0 LAT Au 0 0.000 196.96654
2444 Au 0 LAT Au 0 0.000 196.96654
2445 Au 0 LAT Au 0 0.000 196.96654
2446 Au 0 LAT Au 0 0.000 196.96654
2447 Au 0 LAT Au 0 0.000 196.96654
2448 Au 0 LAT Au 0 0.000 196.96654
2449 Au 0 LAT Au 0 0.000 196.96654
2450 Au 0 LAT Au 0 0.000 196.96654
2451 Au 0 LAT Au 0 0.000 196.96654
2452 Au 0 LAT Au 0 0.000 196.96654
2453 Au 0 LAT Au 0 0.000 196.96654
2454 Au 0 LAT Au 0 0.000 196.96654
2455 Au 0 LAT Au 0 0.000 196.96654
2456 Au 0 LAT Au 0 0.000 196.96654
2457 Au 0 LAT Au 0 0.000 196.96654
2458 Au 0 LAT Au 0 0.000 196.96654
2459 Au 0 LAT Au 0 0.000 196.96654
2460 Au 0 LAT Au 0 0.000 196.96654
2461 Au 0 LAT Au 0 0.000 196.96654
2462 Au 0 LAT Au 0 0.000 196.96654
2463 Au 0 LAT Au 0 0.000 196.96654
2464 Au 0 LAT Au 0 0.000 196.96654
2465 Au 0 LAT Au 0 0.000 196.96654
2466 Au 0 LAT Au 0 0.000 196.96654
2467 Au 0 LAT Au 0 0.000 196.96654
2468 Au 0 LAT Au 0 0.000 196.96654
2469 Au 0 LAT Au 0 0.000 196.96654
2470 Au 0 LAT Au 0 0.000 196.96654
2471 Au 0 LAT Au 0 0.000 196.96654
2472 Au 0 LAT Au 0 0.000 196.96654
2473 Au 0 LAT Au 0 0.000 196.96654
2474 Au 0 LAT Au 0 0.000 196.96654
2475 Au 0 LAT Au 0 0.000 196.96654
2476 Au 0 LAT Au 0 0.000 196.96654
2477 Au 0 LAT Au 0 0.000 196.96654
2478 Au 0 LAT Au 0 0.000 196.96654
2479 Au 0 LAT Au 0 0.000 196.96654
2480 Au 0 LAT Au 0 0.000 196.96654
2481 Au 0 LAT Au 0 0.000 196.96654
2482 Au 0 LAT Au 0 0.000 196.96654
2483 Au 0 LAT Au 0 0.000 196.96654
2484 Au 0 LAT Au 0 0.000 196.96654
2485 Au 0 LAT Au 0 0.000 196.96654
2486 Au 0 LAT Au 0 0.000 196.96654
2487 Au 0 LAT Au 0 0.000 196.96654
2488 Au 0 LAT Au 0 0.000 196.96654
2489 Au 0 LAT Au 0 0.000 196.96654
2490 Au 0 LAT Au 0 0.000 196.96654
2491 Au 0 LAT Au 0 0.000 196.96654
2492 Au 0 LAT Au 0 0.000 196.96654
2493 Au 0 LAT Au 0 0.000 196.96654
2494 Au 0 LAT Au 0 0.000 196.96654
2495 Au 0 LAT Au 0 0.000 196.96654
2496 Au 0 LAT Au 0 0.000 196.96654
2497 Au 0 LAT Au 0 0.000 196.96654
2498 Au 0 LAT Au 0 0.000 196.96654
2499 Au 0 LAT Au 0 0.000 196.96654
2500 Au 0 LAT Au 0 0.000 196.96654
2501 Au 0 LAT Au 0 0.000 196.96654
2502 Au 0 LAT Au 0 0.000 196.96654
2503 Au 0 LAT Au 0 0.000 196.96654
2504 Au 0 LAT Au 0 0.000 196.96654
2505 Au 0 LAT Au 0 0.000 196.96654
2506 Au 0 LAT Au 0 0.000 196.96654
2507 Au 0 LAT Au 0 0.000 196.96654
2508 Au 0 LAT Au 0 0.000 196.96654
2509 Au 0 LAT Au 0 0.000 196.96654
2510 Au 0 LAT Au 0 0.000 196.96654
2511 Au 0 LAT Au 0 0.000 196.96654
2512 Au 0 LAT Au 0 0.000 196.96654
2513 Au 0 LAT Au 0 0.000 196.96654
2514 Au 0 LAT Au 0 0.000 196.96654
2515 Au 0 LAT Au 0 0.000 196.96654
2516 Au 0 LAT Au 0 0.000 196.96654
2517 Au 0 LAT Au 0 0.000 196.96654
2518 Au 0 LAT Au 0 0.000 196.96654
2519 Au 0 LAT Au 0 0.000 196.96654
2520 Au 0 LAT Au 0 0.000 196.96654
2521 Au 0 LAT Au 0 0.000 196.96654
2522 Au 0 LAT Au 0 0.000 196.96654
2523 Au 0 LAT Au 0 0.000 196.96654
2524 Au 0 LAT Au 0 0.000 196.96654
2525 Au 0 LAT Au 0 0.000 196.96654
2526 Au 0 LAT Au 0 0.000 196.96654
2527 Au 0 LAT Au 0 0.000 196.96654
2528 Au 0 LAT Au 0 0.000 196.96654
2529 Au 0 LAT Au 0 0.000 196.96654
2530 Au 0 LAT Au 0 0.000 196.96654
2531 Au 0 LAT Au 0 0.000 196.96654
2532 Au 0 LAT Au 0 0.000 196.96654
2533 Au 0 LAT Au 0 0.000 196.96654
2534 Au 0 LAT Au 0 0.000 196.96654
2535 Au 0 LAT Au 0 0.000 196.96654
2536 Au 0 LAT Au 0 0.000 196.96654
2537 Au 0 LAT Au 0 0.000 196.96654
2538 Au 0 LAT Au 0 0.000 196.96654
2539 Au 0 LAT Au 0 0.000 196.96654
2540 Au 0 LAT Au 0 0.000 196.96654
2541 Au 0 LAT Au 0 0.000 196.96654
2542 Au 0 LAT Au 0 0.000 196.96654
2543 Au 0 LAT Au 0 0.000 196.96654
2544 Au 0 LAT Au 0 0.000 196.96654
2545 Au 0 LAT Au 0 0.000 196.96654
2546 Au 0 LAT Au 0 0.000 196.96654
2547 Au 0 LAT Au 0 0.000 196.96654
2548 Au 0 LAT Au 0 0.000 196.96654
2549 Au 0 LAT Au 0 0.000 196.96654
2550 Au 0 LAT Au 0 0.000 196.96654
2551 Au 0 LAT Au 0 0.000 196.96654
2552 Au 0 LAT Au 0 0.000 196.96654
2553 Au 0 LAT Au 0 0.000 196.96654
2554 Au 0 LAT Au 0 0.000 196.96654
2555 Au 0 LAT Au 0 0.000 196.96654
2556 Au 0 LAT Au 0 0.000 196.96654
2557 Au 0 LAT Au 0 0.000 196.96654
2558 Au 0 LAT Au 0 0.000 196.96654
2559 Au 0 LAT Au 0 0.000 196.96654
2560 Au 0 LAT Au 0 0.000 196.96654
2561 Au 0 LAT Au 0 0.000 196.96654
2562 Au 0 LAT Au 0 0.000 196.96654
2563 Au 0 LAT Au 0 0.000 196.96654
2564 Au 0 LAT Au 0 0.000 196.96654
2565 Au 0 LAT Au 0 0.000 196.96654
2566 Au 0 LAT Au 0 0.000 196.96654
2567 Au 0 LAT Au 0 0.000 196.96654
2568 Au 0 LAT Au 0 0.000 196.96654
2569 Au 0 LAT Au 0 0.000 196.96654
2570 Au 0 LAT Au 0 0.000 196.96654
2571 Au 0 LAT Au 0 0.000 196.96654
2572 Au 0 LAT Au 0 0.000 196.96654
2573 Au 0 LAT Au 0 0.000 196.96654
2574 Au 0 LAT Au 0 0.000 196.96654
2575 Au 0 LAT Au 0 0.000 196.96654
2576 Au 0 LAT Au 0 0.000 196.96654
2577 Au 0 LAT Au 0 0.000 196.96654
2578 Au 0 LAT Au 0 0.000 196.96654
2579 Au 0 LAT Au 0 0.000 196.96654
2580 Au 0 LAT Au 0 0.000 196.96654
2581 Au 0 LAT Au 0 0.000 196.96654
2582 Au 0 LAT Au 0 0.000 196.96654
2583 Au 0 LAT Au 0 0.000 196.96654
2584 Au 0 LAT Au 0 0.000 196.96654
2585 Au 0 LAT Au 0 0.000 196.96654
2586 Au 0 LAT Au 0 0.000 196.96654
2587 Au 0 LAT Au 0 0.000 196.96654
2588 Au 0 LAT Au 0 0.000 196.96654
2589 Au 0 LAT Au 0 0.000 196.96654
2590 Au 0 LAT Au 0 0.000 196.96654
2591 Au 0 LAT Au 0 0.000 196.96654
2592 Au 0 LAT Au 0 0.000 196.96654
2593 Au 0 LAT Au 0 0.000 196.96654
2594 Au 0 LAT Au 0 0.000 196.96654
2595 Au 0 LAT Au 0 0.000 196.96654
2596 Au 0 LAT Au 0 0.000 196.96654
2597 Au 0 LAT Au 0 0.000 196.96654
2598 Au 0 LAT Au 0 0.000 196.96654
2599 Au 0 LAT Au 0 0.000 196.96654
2600 Au 0 LAT Au 0 0.000 196.96654
2601 Au 0 LAT Au 0 0.000 196.96654
2602 Au 0 LAT Au 0 0.000 196.96654
2603 Au 0 LAT Au 0 0.000 196.96654
2604 Au 0 LAT Au 0 0.000 196.96654
2605 Au 0 LAT Au 0 0.000 196.96654
2606 Au 0 LAT Au 0 0.000 196.96654
2607 Au 0 LAT Au 0 0.000 196.96654
2608 Au 0 LAT Au 0 0.000 196.96654
2609 Au 0 LAT Au 0 0.000 196.96654
2610 Au 0 LAT Au 0 0.000 196.96654
2611 Au 0 LAT Au 0 0.000 196.96654
2612 Au 0 LAT Au 0 0.000 196.96654
2613 Au 0 LAT Au 0 0.000 196.96654
2614 Au 0 LAT Au 0 0.000 196.96654
2615 Au 0 LAT Au 0 0.000 196.96654
2616 Au 0 LAT Au 0 0.000 196.96654
2617 Au 0 LAT Au 0 0.000 196.96654
2618 Au 0 LAT Au 0 0.000 196.96654
2619 Au 0 LAT Au 0 0.000 196.96654

[ bonds ]
1 2 1
2 3 1
3 4 1
4 5 1
5 6 1
7 8 1
8 9 1
9 10 1
10 11 1
11 12 1
13 14 1
14 15 1
15 16 1
16 17 1
17 18 1
19 20 1
20 21 1
21 22 1
22 23 1
23 24 1
25 26 1
26 27 1
27 28 1
28 29 1
29 30 1
31 32 1
32 33 1
33 34 1
34 35 1
35 36 1
37 38 1
38 39 1
39 40 1
40 41 1
41 42 1
43 44 1
44 45 1
45 46 1
46 47 1
47 48 1
49 50 1
50 51 1
51 52 1
52 53 1
53 54 1
55 56 1
56 57 1
57 58 1
58 59 1
59 60 1
61 62 1
62 63 1
63 64 1
64 65 1
65 66 1
67 68 1
68 69 1
69 70 1
70 71 1
71 72 1
73 74 1
74 75 1
75 76 1
76 77 1
77 78 1
79 80 1
80 81 1
81 82 1
82 83 1
83 84 1
85 86 1
86 87 1
87 88 1
88 89 1
89 90 1
91 92 1
92 93 1
93 94 1
94 95 1
95 96 1
97 98 1
98 99 1
99 100 1
100 101 1
101 102 1
103 104 1
104 105 1
105 106 1
106 107 1
107 108 1
109 110 1
110 111 1
111 112 1
112 113 1
113 114 1
115 116 1
116 117 1
117 118 1
118 119 1
119 120 1
121 122 1
122 123 1
123 124 1
124 125 1
125 126 1
127 128 1
128 129 1
129 130 1
130 131 1
131 132 1
133 134 1
134 135 1
135 136 1
136 137 1
137 138 1
139 140 1
140 141 1
141 142 1
142 143 1
143 144 1
145 146 1
146 147 1
147 148 1
148 149 1
149 150 1
151 152 1
152 153 1
153 154 1
154 155 1
155 156 1
157 158 1
158 159 1
159 160 1
160 161 1
161 162 1
163 164 1
164 165 1
165 166 1
166 167 1
167 168 1
169 170 1
170 171 1
171 172 1
172 173 1
173 174 1
175 176 1
176 177 1
177 178 1
178 179 1
179 180 1
181 182 1
182 183 1
183 184 1
184 185 1
185 186 1
187 188 1
188 189 1
189 190 1
190 191 1
191 192 1
193 194 1
194 195 1
195 196 1
196 197 1
197 198 1
199 200 1
200 201 1
201 202 1
202 203 1
203 204 1
205 206 1
206 207 1
207 208 1
208 209 1
209 210 1
211 212 1
212 213 1
213 214 1
214 215 1
215 216 1
217 218 1
218 219 1
219 220 1
220 221 1
221 222 1
223 224 1
224 225 1
225 226 1
226 227 1
227 228 1
229 230 1
230 231 1
231 232 1
232 233 1
233 234 1
235 236 1
236 237 1
237 238 1
238 239 1
239 240 1
241 242 1
242 243 1
243 244 1
244 245 1
245 246 1
247 248 1
248 249 1
249 250 1
250 251 1
251 252 1
253 254 1
254 255 1
255 256 1
256 257 1
257 258 1
259 260 1
260 261 1
261 262 1
262 263 1
263 264 1
265 266 1
266 267 1
267 268 1
268 269 1
269 270 1
271 272 1
272 273 1
273 274 1
274 275 1
275 276 1
277 278 1
278 279 1
279 280 1
280 281 1
281 282 1
283 284 1
284 285 1
285 286 1
286 287 1
287 288 1
289 290 1
290 291 1
291 292 1
292 293 1
293 294 1
295 296 1
296 297 1
297 298 1
298 299 1
299 300 1
301 302 1
302 303 1
303 304 1
304 305 1
305 306 1
307 308 1
308 309 1
309 310 1
310 311 1
311 312 1
313 314 1
314 315 1
315 316 1
316 317 1
317 318 1
319 320 1
320 321 1
321 322 1
322 323 1
323 324 1
325 326 1
326 327 1
327 328 1
328 329 1
329 330 1
331 332 1
332 333 1
333 334 1
334 335 1
335 336 1
337 338 1
338 339 1
339 340 1
340 341 1
341 342 1
343 344 1
344 345 1
345 346 1
346 347 1
347 348 1
349 350 1
350 351 1
351 352 1
352 353 1
353 354 1
355 356 1
356 357 1
357 358 1
358 359 1
359 360 1
361 362 1
362 363 1
363 364 1
364 365 1
365 366 1
367 368 1
368 369 1
369 370 1
370 371 1
371 372 1
373 374 1
374 375 1
375 376 1
376 377 1
377 378 1
379 380 1
380 381 1
381 382 1
382 383 1
383 384 1
385 386 1
386 387 1
387 388 1
388 389 1
389 390 1
391 392 1
392 393 1
393 394 1
394 395 1
395 396 1
397 398 1
398 399 1
399 400 1
400 401 1
401 402 1
403 404 1
404 405 1
405 406 1
406 407 1
407 408 1
409 410 1
410 411 1
411 412 1
412 413 1
413 414 1
415 416 1
416 417 1
417 418 1
418 419 1
419 420 1
421 422 1
422 423 1
423 424 1
424 425 1
425 426 1
427 428 1
428 429 1
429 430 1
430 431 1
431 432 1
433 434 1
434 435 1
435 436 1
436 437 1
437 438 1
439 440 1
440 441 1
441 442 1
442 443 1
443 444 1
445 446 1
446 447 1
447 448 1
448 449 1
449 450 1
451 452 1
452 453 1
453 454 1
454 455 1
455 456 1
457 458 1
458 459 1
459 460 1
460 461 1
461 462 1
463 464 1
464 465 1
465 466 1
466 467 1
467 468 1
469 470 1
470 471 1
471 472 1
472 473 1
473 474 1
475 476 1
476 477 1
477 478 1
478 479 1
479 480 1
481 482 1
482 483 1
483 484 1
484 485 1
485 486 1
487 488 1
488 489 1
489 490 1
490 491 1
491 492 1
493 494 1
494 495 1
495 496 1
496 497 1
497 498 1
499 500 1
500 501 1
501 502 1
502 503 1
503 504 1
505 506 1
506 507 1
507 508 1
508 509 1
509 510 1
511 512 1
512 513 1
513 514 1
514 515 1
515 516 1
517 518 1
518 519 1
519 520 1
520 521 1
521 522 1
523 524 1
524 525 1
525 526 1
526 527 1
527 528 1
529 530 1
530 531 1
531 532 1
532 533 1
533 534 1
535 536 1
536 537 1
537 538 1
538 539 1
539 540 1
541 542 1
542 543 1
543 544 1
544 545 1
545 546 1
547 548 1
548 549 1
549 550 1
550 551 1
551 552 1
553 554 1
554 555 1
555 556 1
556 557 1
557 558 1
559 560 1
560 561 1
561 562 1
562 563 1
563 564 1
565 566 1
566 567 1
567 568 1
568 569 1
569 570 1
571 572 1
572 573 1
573 574 1
574 575 1
575 576 1
577 578 1
578 579 1
579 580 1
580 581 1
581 582 1
583 584 1
584 585 1
585 586 1
586 587 1
587 588 1
589 590 1
590 591 1
591 592 1
592 593 1
593 594 1
595 596 1
596 597 1
597 598 1
598 599 1
599 600 1
601 602 1
602 603 1
603 604 1
604 605 1
605 606 1
607 608 1
608 609 1
609 610 1
610 611 1
611 612 1
613 614 1
614 615 1
615 616 1
616 617 1
617 618 1
619 620 1
620 621 1
621 622 1
622 623 1
623 624 1
625 626 1
626 627 1
627 628 1
628 629 1
629 630 1
631 632 1
632 633 1
633 634 1
634 635 1
635 636 1
637 638 1
638 639 1
639 640 1
640 641 1
641 642 1
643 644 1
644 645 1
645 646 1
646 647 1
647 648 1
649 650 1
650 651 1
651 652 1
652 653 1
653 654 1
655 656 1
656 657 1
657 658 1
658 659 1
659 660 1
661 662 1
662 663 1
663 664 1
664 665 1
665 666 1
667 668 1
668 669 1
669 670 1
670 671 1
671 672 1
673 674 1
674 675 1
675 676 1
676 677 1
677 678 1
679 680 1
680 681 1
681 682 1
682 683 1
683 684 1
685 686 1
686 687 1
687 688 1
688 689 1
689 690 1
691 692 1
692 693 1
693 694 1
694 695 1
695 696 1
697 698 1
698 699 1
699 700 1
700 701 1
701 702 1
703 704 1
704 705 1
705 706 1
706 707 1
707 708 1
709 710 1
710 711 1
711 712 1
712 713 1
713 714 1
715 716 1
716 717 1
717 718 1
718 719 1
719 720 1
721 722 1
722 723 1
723 724 1
724 725 1
725 726 1
727 728 1
728 729 1
729 730 1
730 731 1
731 732 1
733 734 1
734 735 1
735 736 1
736 737 1
737 738 1
739 740 1
740 741 1
741 742 1
742 743 1
743 744 1
745 746 1
746 747 1
747 748 1
748 749 1
749 750 1
751 752 1
752 753 1
753 754 1
754 755 1
755 756 1
;sub-sub
757 758 1
757 765 1
757 768 1
757 840 1
757 843 1
757 844 1
757 867 1
758 759 1
758 830 1
758 843 1
758 844 1
758 847 1
759 760 1
759 768 1
759 769 1
759 772 1
759 844 1
759 847 1
759 848 1
759 871 1
760 761 1
760 833 1
760 847 1
760 848 1
760 851 1
761 762 1
761 772 1
761 773 1
761 776 1
761 848 1
761 851 1
761 852 1
761 875 1
762 763 1
762 836 1
762 851 1
762 852 1
762 855 1
763 776 1
763 778 1
763 852 1
763 855 1
763 856 1
763 879 1
764 765 1
764 781 1
764 860 1
764 863 1
764 864 1
764 891 1
765 767 1
765 840 1
765 863 1
765 864 1
765 867 1
766 767 1
766 768 1
766 769 1
766 771 1
766 782 1
766 785 1
766 786 1
767 768 1
767 781 1
767 782 1
767 785 1
767 864 1
767 867 1
767 868 1
767 895 1
768 769 1
768 771 1
768 844 1
768 867 1
768 868 1
768 871 1
769 770 1
769 771 1
769 772 1
770 771 1
770 772 1
770 773 1
770 775 1
770 786 1
770 789 1
770 790 1
771 772 1
771 785 1
771 786 1
771 789 1
771 868 1
771 871 1
771 872 1
771 899 1
772 773 1
772 775 1
772 848 1
772 871 1
772 872 1
772 875 1
773 774 1
773 775 1
773 776 1
774 775 1
774 776 1
774 777 1
774 790 1
774 793 1
774 794 1
775 776 1
775 789 1
775 790 1
775 793 1
775 872 1
775 875 1
775 876 1
775 903 1
776 777 1
776 852 1
776 875 1
776 876 1
776 879 1
777 778 1
777 793 1
777 794 1
777 796 1
777 876 1
777 879 1
777 880 1
777 907 1
778 779 1
778 856 1
778 879 1
778 880 1
778 883 1
779 796 1
779 880 1
779 883 1
779 884 1
779 911 1
780 781 1
780 799 1
780 888 1
780 891 1
780 892 1
780 919 1
781 782 1
781 784 1
781 864 1
781 891 1
781 892 1
781 895 1
782 783 1
782 784 1
782 785 1
783 784 1
783 785 1
783 786 1
783 788 1
783 800 1
783 803 1
783 804 1
784 785 1
784 799 1
784 800 1
784 803 1
784 892 1
784 895 1
784 896 1
784 923 1
785 786 1
785 788 1
785 868 1
785 895 1
785 896 1
785 899 1
786 787 1
786 788 1
786 789 1
787 788 1
787 789 1
787 790 1
787 792 1
787 804 1
787 807 1
787 808 1
788 789 1
788 803 1
788 804 1
788 807 1
788 896 1
788 899 1
788 900 1
788 927 1
789 790 1
789 792 1
789 872 1
789 899 1
789 900 1
789 903 1
790 791 1
790 792 1
790 793 1
791 792 1
791 793 1
791 794 1
791 795 1
791 808 1
791 811 1
791 812 1
792 793 1
792 807 1
792 808 1
792 811 1
792 900 1
792 903 1
792 904 1
792 931 1
793 794 1
793 795 1
793 876 1
793 903 1
793 904 1
793 907 1
794 795 1
794 796 1
795 796 1
795 811 1
795 812 1
795 814 1
795 904 1
795 907 1
795 908 1
795 935 1
796 797 1
796 880 1
796 907 1
796 908 1
796 911 1
797 814 1
797 908 1
797 911 1
797 912 1
797 939 1
798 799 1
798 816 1
798 916 1
798 919 1
798 920 1
798 945 1
799 800 1
799 802 1
799 892 1
799 919 1
799 920 1
799 923 1
800 801 1
800 802 1
800 803 1
801 802 1
801 803 1
801 804 1
801 806 1
801 818 1
801 819 1
802 803 1
802 816 1
802 818 1
802 920 1
802 923 1
802 924 1
802 949 1
803 804 1
803 806 1
803 896 1
803 923 1
803 924 1
803 927 1
804 805 1
804 806 1
804 807 1
805 806 1
805 807 1
805 808 1
805 810 1
805 819 1
805 821 1
805 822 1
806 807 1
806 818 1
806 819 1
806 821 1
806 924 1
806 927 1
806 928 1
806 953 1
807 808 1
807 810 1
807 900 1
807 927 1
807 928 1
807 931 1
808 809 1
808 810 1
808 811 1
809 810 1
809 811 1
809 812 1
809 813 1
809 822 1
809 824 1
810 811 1
810 821 1
810 822 1
810 824 1
810 928 1
810 931 1
810 932 1
810 957 1
811 812 1
811 813 1
811 904 1
811 931 1
811 932 1
811 935 1
812 813 1
812 814 1
813 814 1
813 824 1
813 826 1
813 932 1
813 935 1
813 936 1
813 961 1
814 815 1
814 908 1
814 935 1
814 936 1
814 939 1
815 826 1
815 936 1
815 939 1
815 940 1
815 965 1
816 817 1
816 920 1
816 945 1
816 946 1
816 949 1
817 818 1
817 827 1
817 946 1
817 949 1
817 950 1
817 969 1
818 819 1
818 820 1
818 924 1
818 949 1
818 950 1
818 953 1
819 820 1
819 821 1
820 821 1
820 827 1
820 828 1
820 950 1
820 953 1
820 954 1
820 973 1
821 822 1
821 823 1
821 928 1
821 953 1
821 954 1
821 957 1
822 823 1
822 824 1
823 824 1
823 828 1
823 829 1
823 954 1
823 957 1
823 958 1
823 977 1
824 825 1
824 932 1
824 957 1
824 958 1
824 961 1
825 826 1
825 829 1
825 958 1
825 961 1
825 962 1
825 981 1
826 936 1
826 961 1
826 962 1
826 965 1
827 950 1
827 969 1
827 970 1
827 973 1
828 954 1
828 973 1
828 974 1
828 977 1
829 958 1
829 977 1
829 978 1
829 981 1
830 831 1
830 832 1
830 834 1
830 843 1
830 846 1
830 847 1
831 832 1
831 842 1
831 843 1
831 846 1
831 994 1
831 997 1
831 998 1
831 1021 1
832 834 1
832 987 1
832 997 1
832 998 1
832 1001 1
833 834 1
833 835 1
833 837 1
833 847 1
833 850 1
833 851 1
834 835 1
834 846 1
834 847 1
834 850 1
834 998 1
834 1001 1
834 1002 1
834 1025 1
835 837 1
835 989 1
835 1001 1
835 1002 1
835 1005 1
836 837 1
836 838 1
836 839 1
836 851 1
836 854 1
836 855 1
837 838 1
837 850 1
837 851 1
837 854 1
837 1002 1
837 1005 1
837 1006 1
837 1029 1
838 839 1
838 991 1
838 1005 1
838 1006 1
838 1009 1
839 854 1
839 855 1
839 858 1
839 1006 1
839 1009 1
839 1010 1
839 1033 1
840 841 1
840 842 1
840 843 1
840 845 1
840 863 1
840 866 1
840 867 1
841 842 1
841 862 1
841 863 1
841 866 1
841 1014 1
841 1017 1
841 1018 1
841 1048 1
842 843 1
842 845 1
842 994 1
842 1017 1
842 1018 1
842 1021 1
843 844 1
843 845 1
843 846 1
844 845 1
844 846 1
844 847 1
844 849 1
844 867 1
844 870 1
844 871 1
845 846 1
845 866 1
845 867 1
845 870 1
845 1018 1
845 1021 1
845 1022 1
845 1052 1
846 847 1
846 849 1
846 998 1
846 1021 1
846 1022 1
846 1025 1
847 848 1
847 849 1
847 850 1
848 849 1
848 850 1
848 851 1
848 853 1
848 871 1
848 874 1
848 875 1
849 850 1
849 870 1
849 871 1
849 874 1
849 1022 1
849 1025 1
849 1026 1
849 1056 1
850 851 1
850 853 1
850 1002 1
850 1025 1
850 1026 1
850 1029 1
851 852 1
851 853 1
851 854 1
852 853 1
852 854 1
852 855 1
852 857 1
852 875 1
852 878 1
852 879 1
853 854 1
853 874 1
853 875 1
853 878 1
853 1026 1
853 1029 1
853 1030 1
853 1060 1
854 855 1
854 857 1
854 1006 1
854 1029 1
854 1030 1
854 1033 1
855 856 1
855 857 1
855 858 1
856 857 1
856 858 1
856 859 1
856 879 1
856 882 1
856 883 1
857 858 1
857 878 1
857 879 1
857 882 1
857 1030 1
857 1033 1
857 1034 1
857 1064 1
858 859 1
858 1010 1
858 1033 1
858 1034 1
858 1037 1
859 882 1
859 883 1
859 886 1
859 1034 1
859 1037 1
859 1038 1
859 1068 1
860 861 1
860 862 1
860 863 1
860 865 1
860 890 1
860 891 1
861 862 1
861 890 1
861 1042 1
861 1044 1
861 1045 1
861 1078 1
862 863 1
862 865 1
862 1014 1
862 1044 1
862 1045 1
862 1048 1
863 864 1
863 865 1
863 866 1
864 865 1
864 866 1
864 867 1
864 869 1
864 891 1
864 894 1
864 895 1
865 866 1
865 890 1
865 891 1
865 894 1
865 1045 1
865 1048 1
865 1049 1
865 1082 1
866 867 1
866 869 1
866 1018 1
866 1048 1
866 1049 1
866 1052 1
867 868 1
867 869 1
867 870 1
868 869 1
868 870 1
868 871 1
868 873 1
868 895 1
868 898 1
868 899 1
869 870 1
869 894 1
869 895 1
869 898 1
869 1049 1
869 1052 1
869 1053 1
869 1086 1
870 871 1
870 873 1
870 1022 1
870 1052 1
870 1053 1
870 1056 1
871 872 1
871 873 1
871 874 1
872 873 1
872 874 1
872 875 1
872 877 1
872 899 1
872 902 1
872 903 1
873 874 1
873 898 1
873 899 1
873 902 1
873 1053 1
873 1056 1
873 1057 1
873 1090 1
874 875 1
874 877 1
874 1026 1
874 1056 1
874 1057 1
874 1060 1
875 876 1
875 877 1
875 878 1
876 877 1
876 878 1
876 879 1
876 881 1
876 903 1
876 906 1
876 907 1
877 878 1
877 902 1
877 903 1
877 906 1
877 1057 1
877 1060 1
877 1061 1
877 1094 1
878 879 1
878 881 1
878 1030 1
878 1060 1
878 1061 1
878 1064 1
879 880 1
879 881 1
879 882 1
880 881 1
880 882 1
880 883 1
880 885 1
880 907 1
880 910 1
880 911 1
881 882 1
881 906 1
881 907 1
881 910 1
881 1061 1
881 1064 1
881 1065 1
881 1098 1
882 883 1
882 885 1
882 1034 1
882 1064 1
882 1065 1
882 1068 1
883 884 1
883 885 1
883 886 1
884 885 1
884 886 1
884 887 1
884 911 1
884 914 1
885 886 1
885 910 1
885 911 1
885 914 1
885 1065 1
885 1068 1
885 1069 1
885 1102 1
886 887 1
886 1038 1
886 1068 1
886 1069 1
886 1072 1
887 914 1
887 1069 1
887 1072 1
887 1073 1
887 1106 1
888 889 1
888 890 1
888 891 1
888 893 1
888 918 1
888 919 1
889 890 1
889 918 1
889 1076 1
889 1078 1
889 1079 1
889 1112 1
890 891 1
890 893 1
890 1045 1
890 1078 1
890 1079 1
890 1082 1
891 892 1
891 893 1
891 894 1
892 893 1
892 894 1
892 895 1
892 897 1
892 919 1
892 922 1
892 923 1
893 894 1
893 918 1
893 919 1
893 922 1
893 1079 1
893 1082 1
893 1083 1
893 1116 1
894 895 1
894 897 1
894 1049 1
894 1082 1
894 1083 1
894 1086 1
895 896 1
895 897 1
895 898 1
896 897 1
896 898 1
896 899 1
896 901 1
896 923 1
896 926 1
896 927 1
897 898 1
897 922 1
897 923 1
897 926 1
897 1083 1
897 1086 1
897 1087 1
897 1120 1
898 899 1
898 901 1
898 1053 1
898 1086 1
898 1087 1
898 1090 1
899 900 1
899 901 1
899 902 1
900 901 1
900 902 1
900 903 1
900 905 1
900 927 1
900 930 1
900 931 1
901 902 1
901 926 1
901 927 1
901 930 1
901 1087 1
901 1090 1
901 1091 1
901 1124 1
902 903 1
902 905 1
902 1057 1
902 1090 1
902 1091 1
902 1094 1
903 904 1
903 905 1
903 906 1
904 905 1
904 906 1
904 907 1
904 909 1
904 931 1
904 934 1
904 935 1
905 906 1
905 930 1
905 931 1
905 934 1
905 1091 1
905 1094 1
905 1095 1
905 1128 1
906 907 1
906 909 1
906 1061 1
906 1094 1
906 1095 1
906 1098 1
907 908 1
907 909 1
907 910 1
908 909 1
908 910 1
908 911 1
908 913 1
908 935 1
908 938 1
908 939 1
909 910 1
909 934 1
909 935 1
909 938 1
909 1095 1
909 1098 1
909 1099 1
909 1132 1
910 911 1
910 913 1
910 1065 1
910 1098 1
910 1099 1
910 1102 1
911 912 1
911 913 1
911 914 1
912 913 1
912 914 1
912 915 1
912 939 1
912 942 1
913 914 1
913 938 1
913 939 1
913 942 1
913 1099 1
913 1102 1
913 1103 1
913 1136 1
914 915 1
914 1069 1
914 1102 1
914 1103 1
914 1106 1
915 942 1
915 1103 1
915 1106 1
915 1107 1
915 1140 1
916 917 1
916 918 1
916 919 1
916 921 1
916 944 1
916 945 1
917 918 1
917 944 1
917 1110 1
917 1112 1
917 1113 1
917 1145 1
918 919 1
918 921 1
918 1079 1
918 1112 1
918 1113 1
918 1116 1
919 920 1
919 921 1
919 922 1
920 921 1
920 922 1
920 923 1
920 925 1
920 945 1
920 948 1
920 949 1
921 922 1
921 944 1
921 945 1
921 948 1
921 1113 1
921 1116 1
921 1117 1
921 1149 1
922 923 1
922 925 1
922 1083 1
922 1116 1
922 1117 1
922 1120 1
923 924 1
923 925 1
923 926 1
924 925 1
924 926 1
924 927 1
924 929 1
924 949 1
924 952 1
924 953 1
925 926 1
925 948 1
925 949 1
925 952 1
925 1117 1
925 1120 1
925 1121 1
925 1153 1
926 927 1
926 929 1
926 1087 1
926 1120 1
926 1121 1
926 1124 1
927 928 1
927 929 1
927 930 1
928 929 1
928 930 1
928 931 1
928 933 1
928 953 1
928 956 1
928 957 1
929 930 1
929 952 1
929 953 1
929 956 1
929 1121 1
929 1124 1
929 1125 1
929 1157 1
930 931 1
930 933 1
930 1091 1
930 1124 1
930 1125 1
930 1128 1
931 932 1
931 933 1
931 934 1
932 933 1
932 934 1
932 935 1
932 937 1
932 957 1
932 960 1
932 961 1
933 934 1
933 956 1
933 957 1
933 960 1
933 1125 1
933 1128 1
933 1129 1
933 1161 1
934 935 1
934 937 1
934 1095 1
934 1128 1
934 1129 1
934 1132 1
935 936 1
935 937 1
935 938 1
936 937 1
936 938 1
936 939 1
936 941 1
936 961 1
936 964 1
936 965 1
937 938 1
937 960 1
937 961 1
937 964 1
937 1129 1
937 1132 1
937 1133 1
937 1165 1
938 939 1
938 941 1
938 1099 1
938 1132 1
938 1133 1
938 1136 1
939 940 1
939 941 1
939 942 1
940 941 1
940 942 1
940 943 1
940 965 1
940 967 1
941 942 1
941 964 1
941 965 1
941 967 1
941 1133 1
941 1136 1
941 1137 1
941 1169 1
942 943 1
942 1103 1
942 1136 1
942 1137 1
942 1140 1
943 967 1
943 1137 1
943 1140 1
943 1141 1
943 1173 1
944 945 1
944 947 1
944 1113 1
944 1145 1
944 1146 1
944 1149 1
945 946 1
945 947 1
945 948 1
946 947 1
946 948 1
946 949 1
946 951 1
946 968 1
946 969 1
947 948 1
947 968 1
947 1146 1
947 1149 1
947 1150 1
947 1177 1
948 949 1
948 951 1
948 1117 1
948 1149 1
948 1150 1
948 1153 1
949 950 1
949 951 1
949 952 1
950 951 1
950 952 1
950 953 1
950 955 1
950 969 1
950 972 1
950 973 1
951 952 1
951 968 1
951 969 1
951 972 1
951 1150 1
951 1153 1
951 1154 1
951 1181 1
952 953 1
952 955 1
952 1121 1
952 1153 1
952 1154 1
952 1157 1
953 954 1
953 955 1
953 956 1
954 955 1
954 956 1
954 957 1
954 959 1
954 973 1
954 976 1
954 977 1
955 956 1
955 972 1
955 973 1
955 976 1
955 1154 1
955 1157 1
955 1158 1
955 1185 1
956 957 1
956 959 1
956 1125 1
956 1157 1
956 1158 1
956 1161 1
957 958 1
957 959 1
957 960 1
958 959 1
958 960 1
958 961 1
958 963 1
958 977 1
958 980 1
958 981 1
959 960 1
959 976 1
959 977 1
959 980 1
959 1158 1
959 1161 1
959 1162 1
959 1189 1
960 961 1
960 963 1
960 1129 1
960 1161 1
960 1162 1
960 1165 1
961 962 1
961 963 1
961 964 1
962 963 1
962 964 1
962 965 1
962 966 1
962 981 1
962 983 1
963 964 1
963 980 1
963 981 1
963 983 1
963 1162 1
963 1165 1
963 1166 1
963 1193 1
964 965 1
964 966 1
964 1133 1
964 1165 1
964 1166 1
964 1169 1
965 966 1
965 967 1
966 967 1
966 983 1
966 1166 1
966 1169 1
966 1170 1
966 1197 1
967 1137 1
967 1169 1
967 1170 1
967 1173 1
968 969 1
968 971 1
968 1150 1
968 1177 1
968 1178 1
968 1181 1
969 970 1
969 971 1
969 972 1
970 971 1
970 972 1
970 973 1
970 975 1
970 984 1
971 972 1
971 984 1
971 1178 1
971 1181 1
971 1182 1
971 1201 1
972 973 1
972 975 1
972 1154 1
972 1181 1
972 1182 1
972 1185 1
973 974 1
973 975 1
973 976 1
974 975 1
974 976 1
974 977 1
974 979 1
974 985 1
975 976 1
975 984 1
975 985 1
975 1182 1
975 1185 1
975 1186 1
975 1205 1
976 977 1
976 979 1
976 1158 1
976 1185 1
976 1186 1
976 1189 1
977 978 1
977 979 1
977 980 1
978 979 1
978 980 1
978 981 1
978 982 1
978 986 1
979 980 1
979 985 1
979 986 1
979 1186 1
979 1189 1
979 1190 1
979 1209 1
980 981 1
980 982 1
980 1162 1
980 1189 1
980 1190 1
980 1193 1
981 982 1
981 983 1
982 983 1
982 986 1
982 1190 1
982 1193 1
982 1194 1
982 1213 1
983 1166 1
983 1193 1
983 1194 1
983 1197 1
984 1182 1
984 1201 1
984 1202 1
984 1205 1
985 1186 1
985 1205 1
985 1206 1
985 1209 1
986 1190 1
986 1209 1
986 1210 1
986 1213 1
987 988 1
987 990 1
987 997 1
987 1000 1
987 1001 1
988 996 1
988 997 1
988 1000 1
988 1216 1
988 1218 1
988 1239 1
989 990 1
989 992 1
989 1001 1
989 1004 1
989 1005 1
990 1000 1
990 1001 1
990 1004 1
990 1218 1
990 1221 1
990 1222 1
990 1243 1
991 992 1
991 993 1
991 1005 1
991 1008 1
991 1009 1
992 1004 1
992 1005 1
992 1008 1
992 1222 1
992 1225 1
992 1226 1
992 1247 1
993 1008 1
993 1009 1
993 1012 1
993 1226 1
993 1229 1
993 1251 1
994 995 1
994 996 1
994 997 1
994 999 1
994 1017 1
994 1020 1
994 1021 1
995 996 1
995 1016 1
995 1017 1
995 1020 1
995 1232 1
995 1235 1
995 1236 1
995 1266 1
996 997 1
996 999 1
996 1216 1
996 1235 1
996 1236 1
996 1239 1
997 998 1
997 999 1
997 1000 1
998 999 1
998 1000 1
998 1001 1
998 1003 1
998 1021 1
998 1024 1
998 1025 1
999 1000 1
999 1020 1
999 1021 1
999 1024 1
999 1236 1
999 1239 1
999 1240 1
999 1270 1
1000 1001 1
1000 1003 1
1000 1218 1
1000 1239 1
1000 1240 1
1000 1243 1
1001 1002 1
1001 1003 1
1001 1004 1
1002 1003 1
1002 1004 1
1002 1005 1
1002 1007 1
1002 1025 1
1002 1028 1
1002 1029 1
1003 1004 1
1003 1024 1
1003 1025 1
1003 1028 1
1003 1240 1
1003 1243 1
1003 1244 1
1003 1274 1
1004 1005 1
1004 1007 1
1004 1222 1
1004 1243 1
1004 1244 1
1004 1247 1
1005 1006 1
1005 1007 1
1005 1008 1
1006 1007 1
1006 1008 1
1006 1009 1
1006 1011 1
1006 1029 1
1006 1032 1
1006 1033 1
1007 1008 1
1007 1028 1
1007 1029 1
1007 1032 1
1007 1244 1
1007 1247 1
1007 1248 1
1007 1278 1
1008 1009 1
1008 1011 1
1008 1226 1
1008 1247 1
1008 1248 1
1008 1251 1
1009 1010 1
1009 1011 1
1009 1012 1
1010 1011 1
1010 1012 1
1010 1013 1
1010 1033 1
1010 1036 1
1010 1037 1
1011 1012 1
1011 1032 1
1011 1033 1
1011 1036 1
1011 1248 1
1011 1251 1
1011 1252 1
1011 1282 1
1012 1013 1
1012 1229 1
1012 1251 1
1012 1252 1
1012 1255 1
1013 1036 1
1013 1037 1
1013 1040 1
1013 1252 1
1013 1255 1
1013 1256 1
1013 1286 1
1014 1015 1
1014 1016 1
1014 1017 1
1014 1019 1
1014 1044 1
1014 1047 1
1014 1048 1
1015 1016 1
1015 1043 1
1015 1044 1
1015 1047 1
1015 1260 1
1015 1262 1
1015 1263 1
1015 1297 1
1016 1017 1
1016 1019 1
1016 1232 1
1016 1262 1
1016 1263 1
1016 1266 1
1017 1018 1
1017 1019 1
1017 1020 1
1018 1019 1
1018 1020 1
1018 1021 1
1018 1023 1
1018 1048 1
1018 1051 1
1018 1052 1
1019 1020 1
1019 1047 1
1019 1048 1
1019 1051 1
1019 1263 1
1019 1266 1
1019 1267 1
1019 1301 1
1020 1021 1
1020 1023 1
1020 1236 1
1020 1266 1
1020 1267 1
1020 1270 1
1021 1022 1
1021 1023 1
1021 1024 1
1022 1023 1
1022 1024 1
1022 1025 1
1022 1027 1
1022 1052 1
1022 1055 1
1022 1056 1
1023 1024 1
1023 1051 1
1023 1052 1
1023 1055 1
1023 1267 1
1023 1270 1
1023 1271 1
1023 1305 1
1024 1025 1
1024 1027 1
1024 1240 1
1024 1270 1
1024 1271 1
1024 1274 1
1025 1026 1
1025 1027 1
1025 1028 1
1026 1027 1
1026 1028 1
1026 1029 1
1026 1031 1
1026 1056 1
1026 1059 1
1026 1060 1
1027 1028 1
1027 1055 1
1027 1056 1
1027 1059 1
1027 1271 1
1027 1274 1
1027 1275 1
1027 1309 1
1028 1029 1
1028 1031 1
1028 1244 1
1028 1274 1
1028 1275 1
1028 1278 1
1029 1030 1
1029 1031 1
1029 1032 1
1030 1031 1
1030 1032 1
1030 1033 1
1030 1035 1
1030 1060 1
1030 1063 1
1030 1064 1
1031 1032 1
1031 1059 1
1031 1060 1
1031 1063 1
1031 1275 1
1031 1278 1
1031 1279 1
1031 1313 1
1032 1033 1
1032 1035 1
1032 1248 1
1032 1278 1
1032 1279 1
1032 1282 1
1033 1034 1
1033 1035 1
1033 1036 1
1034 1035 1
1034 1036 1
1034 1037 1
1034 1039 1
1034 1064 1
1034 1067 1
1034 1068 1
1035 1036 1
1035 1063 1
1035 1064 1
1035 1067 1
1035 1279 1
1035 1282 1
1035 1283 1
1035 1317 1
1036 1037 1
1036 1039 1
1036 1252 1
1036 1282 1
1036 1283 1
1036 1286 1
1037 1038 1
1037 1039 1
1037 1040 1
1038 1039 1
1038 1040 1
1038 1041 1
1038 1068 1
1038 1071 1
1038 1072 1
1039 1040 1
1039 1067 1
1039 1068 1
1039 1071 1
1039 1283 1
1039 1286 1
1039 1287 1
1039 1321 1
1040 1041 1
1040 1256 1
1040 1286 1
1040 1287 1
1040 1290 1
1041 1071 1
1041 1072 1
1041 1075 1
1041 1287 1
1041 1290 1
1041 1291 1
1041 1325 1
1042 1043 1
1042 1044 1
1042 1046 1
1042 1077 1
1042 1078 1
1043 1044 1
1043 1046 1
1043 1260 1
1043 1294 1
1043 1297 1
1044 1045 1
1044 1046 1
1044 1047 1
1045 1046 1
1045 1047 1
1045 1048 1
1045 1050 1
1045 1078 1
1045 1081 1
1045 1082 1
1046 1047 1
1046 1077 1
1046 1078 1
1046 1081 1
1046 1294 1
1046 1297 1
1046 1298 1
1046 1333 1
1047 1048 1
1047 1050 1
1047 1263 1
1047 1297 1
1047 1298 1
1047 1301 1
1048 1049 1
1048 1050 1
1048 1051 1
1049 1050 1
1049 1051 1
1049 1052 1
1049 1054 1
1049 1082 1
1049 1085 1
1049 1086 1
1050 1051 1
1050 1081 1
1050 1082 1
1050 1085 1
1050 1298 1
1050 1301 1
1050 1302 1
1050 1337 1
1051 1052 1
1051 1054 1
1051 1267 1
1051 1301 1
1051 1302 1
1051 1305 1
1052 1053 1
1052 1054 1
1052 1055 1
1053 1054 1
1053 1055 1
1053 1056 1
1053 1058 1
1053 1086 1
1053 1089 1
1053 1090 1
1054 1055 1
1054 1085 1
1054 1086 1
1054 1089 1
1054 1302 1
1054 1305 1
1054 1306 1
1054 1341 1
1055 1056 1
1055 1058 1
1055 1271 1
1055 1305 1
1055 1306 1
1055 1309 1
1056 1057 1
1056 1058 1
1056 1059 1
1057 1058 1
1057 1059 1
1057 1060 1
1057 1062 1
1057 1090 1
1057 1093 1
1057 1094 1
1058 1059 1
1058 1089 1
1058 1090 1
1058 1093 1
1058 1306 1
1058 1309 1
1058 1310 1
1058 1345 1
1059 1060 1
1059 1062 1
1059 1275 1
1059 1309 1
1059 1310 1
1059 1313 1
1060 1061 1
1060 1062 1
1060 1063 1
1061 1062 1
1061 1063 1
1061 1064 1
1061 1066 1
1061 1094 1
1061 1097 1
1061 1098 1
1062 1063 1
1062 1093 1
1062 1094 1
1062 1097 1
1062 1310 1
1062 1313 1
1062 1314 1
1062 1349 1
1063 1064 1
1063 1066 1
1063 1279 1
1063 1313 1
1063 1314 1
1063 1317 1
1064 1065 1
1064 1066 1
1064 1067 1
1065 1066 1
1065 1067 1
1065 1068 1
1065 1070 1
1065 1098 1
1065 1101 1
1065 1102 1
1066 1067 1
1066 1097 1
1066 1098 1
1066 1101 1
1066 1314 1
1066 1317 1
1066 1318 1
1066 1353 1
1067 1068 1
1067 1070 1
1067 1283 1
1067 1317 1
1067 1318 1
1067 1321 1
1068 1069 1
1068 1070 1
1068 1071 1
1069 1070 1
1069 1071 1
1069 1072 1
1069 1074 1
1069 1102 1
1069 1105 1
1069 1106 1
1070 1071 1
1070 1101 1
1070 1102 1
1070 1105 1
1070 1318 1
1070 1321 1
1070 1322 1
1070 1357 1
1071 1072 1
1071 1074 1
1071 1287 1
1071 1321 1
1071 1322 1
1071 1325 1
1072 1073 1
1072 1074 1
1072 1075 1
1073 1074 1
1073 1075 1
1073 1106 1
1073 1109 1
1074 1075 1
1074 1105 1
1074 1106 1
1074 1109 1
1074 1322 1
1074 1325 1
1074 1326 1
1074 1361 1
1075 1291 1
1075 1325 1
1075 1326 1
1076 1077 1
1076 1078 1
1076 1080 1
1076 1111 1
1076 1112 1
1077 1078 1
1077 1080 1
1077 1294 1
1077 1329 1
1077 1330 1
1077 1333 1
1078 1079 1
1078 1080 1
1078 1081 1
1079 1080 1
1079 1081 1
1079 1082 1
1079 1084 1
1079 1112 1
1079 1115 1
1079 1116 1
1080 1081 1
1080 1111 1
1080 1112 1
1080 1115 1
1080 1330 1
1080 1333 1
1080 1334 1
1080 1369 1
1081 1082 1
1081 1084 1
1081 1298 1
1081 1333 1
1081 1334 1
1081 1337 1
1082 1083 1
1082 1084 1
1082 1085 1
1083 1084 1
1083 1085 1
1083 1086 1
1083 1088 1
1083 1116 1
1083 1119 1
1083 1120 1
1084 1085 1
1084 1115 1
1084 1116 1
1084 1119 1
1084 1334 1
1084 1337 1
1084 1338 1
1084 1373 1
1085 1086 1
1085 1088 1
1085 1302 1
1085 1337 1
1085 1338 1
1085 1341 1
1086 1087 1
1086 1088 1
1086 1089 1
1087 1088 1
1087 1089 1
1087 1090 1
1087 1092 1
1087 1120 1
1087 1123 1
1087 1124 1
1088 1089 1
1088 1119 1
1088 1120 1
1088 1123 1
1088 1338 1
1088 1341 1
1088 1342 1
1088 1377 1
1089 1090 1
1089 1092 1
1089 1306 1
1089 1341 1
1089 1342 1
1089 1345 1
1090 1091 1
1090 1092 1
1090 1093 1
1091 1092 1
1091 1093 1
1091 1094 1
1091 1096 1
1091 1124 1
1091 1127 1
1091 1128 1
1092 1093 1
1092 1123 1
1092 1124 1
1092 1127 1
1092 1342 1
1092 1345 1
1092 1346 1
1092 1381 1
1093 1094 1
1093 1096 1
1093 1310 1
1093 1345 1
1093 1346 1
1093 1349 1
1094 1095 1
1094 1096 1
1094 1097 1
1095 1096 1
1095 1097 1
1095 1098 1
1095 1100 1
1095 1128 1
1095 1131 1
1095 1132 1
1096 1097 1
1096 1127 1
1096 1128 1
1096 1131 1
1096 1346 1
1096 1349 1
1096 1350 1
1096 1385 1
1097 1098 1
1097 1100 1
1097 1314 1
1097 1349 1
1097 1350 1
1097 1353 1
1098 1099 1
1098 1100 1
1098 1101 1
1099 1100 1
1099 1101 1
1099 1102 1
1099 1104 1
1099 1132 1
1099 1135 1
1099 1136 1
1100 1101 1
1100 1131 1
1100 1132 1
1100 1135 1
1100 1350 1
1100 1353 1
1100 1354 1
1100 1389 1
1101 1102 1
1101 1104 1
1101 1318 1
1101 1353 1
1101 1354 1
1101 1357 1
1102 1103 1
1102 1104 1
1102 1105 1
1103 1104 1
1103 1105 1
1103 1106 1
1103 1108 1
1103 1136 1
1103 1139 1
1103 1140 1
1104 1105 1
1104 1135 1
1104 1136 1
1104 1139 1
1104 1354 1
1104 1357 1
1104 1358 1
1104 1393 1
1105 1106 1
1105 1108 1
1105 1322 1
1105 1357 1
1105 1358 1
1105 1361 1
1106 1107 1
1106 1108 1
1106 1109 1
1107 1108 1
1107 1109 1
1107 1140 1
1107 1143 1
1108 1109 1
1108 1139 1
1108 1140 1
1108 1143 1
1108 1358 1
1108 1361 1
1108 1362 1
1108 1397 1
1109 1326 1
1109 1361 1
1109 1362 1
1110 1111 1
1110 1112 1
1110 1114 1
1110 1144 1
1110 1145 1
1111 1112 1
1111 1114 1
1111 1330 1
1111 1365 1
1111 1366 1
1111 1369 1
1112 1113 1
1112 1114 1
1112 1115 1
1113 1114 1
1113 1115 1
1113 1116 1
1113 1118 1
1113 1145 1
1113 1148 1
1113 1149 1
1114 1115 1
1114 1144 1
1114 1145 1
1114 1148 1
1114 1366 1
1114 1369 1
1114 1370 1
1114 1403 1
1115 1116 1
1115 1118 1
1115 1334 1
1115 1369 1
1115 1370 1
1115 1373 1
1116 1117 1
1116 1118 1
1116 1119 1
1117 1118 1
1117 1119 1
1117 1120 1
1117 1122 1
1117 1149 1
1117 1152 1
1117 1153 1
1118 1119 1
1118 1148 1
1118 1149 1
1118 1152 1
1118 1370 1
1118 1373 1
1118 1374 1
1118 1407 1
1119 1120 1
1119 1122 1
1119 1338 1
1119 1373 1
1119 1374 1
1119 1377 1
1120 1121 1
1120 1122 1
1120 1123 1
1121 1122 1
1121 1123 1
1121 1124 1
1121 1126 1
1121 1153 1
1121 1156 1
1121 1157 1
1122 1123 1
1122 1152 1
1122 1153 1
1122 1156 1
1122 1374 1
1122 1377 1
1122 1378 1
1122 1411 1
1123 1124 1
1123 1126 1
1123 1342 1
1123 1377 1
1123 1378 1
1123 1381 1
1124 1125 1
1124 1126 1
1124 1127 1
1125 1126 1
1125 1127 1
1125 1128 1
1125 1130 1
1125 1157 1
1125 1160 1
1125 1161 1
1126 1127 1
1126 1156 1
1126 1157 1
1126 1160 1
1126 1378 1
1126 1381 1
1126 1382 1
1126 1415 1
1127 1128 1
1127 1130 1
1127 1346 1
1127 1381 1
1127 1382 1
1127 1385 1
1128 1129 1
1128 1130 1
1128 1131 1
1129 1130 1
1129 1131 1
1129 1132 1
1129 1134 1
1129 1161 1
1129 1164 1
1129 1165 1
1130 1131 1
1130 1160 1
1130 1161 1
1130 1164 1
1130 1382 1
1130 1385 1
1130 1386 1
1130 1419 1
1131 1132 1
1131 1134 1
1131 1350 1
1131 1385 1
1131 1386 1
1131 1389 1
1132 1133 1
1132 1134 1
1132 1135 1
1133 1134 1
1133 1135 1
1133 1136 1
1133 1138 1
1133 1165 1
1133 1168 1
1133 1169 1
1134 1135 1
1134 1164 1
1134 1165 1
1134 1168 1
1134 1386 1
1134 1389 1
1134 1390 1
1134 1423 1
1135 1136 1
1135 1138 1
1135 1354 1
1135 1389 1
1135 1390 1
1135 1393 1
1136 1137 1
1136 1138 1
1136 1139 1
1137 1138 1
1137 1139 1
1137 1140 1
1137 1142 1
1137 1169 1
1137 1172 1
1137 1173 1
1138 1139 1
1138 1168 1
1138 1169 1
1138 1172 1
1138 1390 1
1138 1393 1
1138 1394 1
1138 1427 1
1139 1140 1
1139 1142 1
1139 1358 1
1139 1393 1
1139 1394 1
1139 1397 1
1140 1141 1
1140 1142 1
1140 1143 1
1141 1142 1
1141 1143 1
1141 1173 1
1141 1175 1
1142 1143 1
1142 1172 1
1142 1173 1
1142 1175 1
1142 1394 1
1142 1397 1
1142 1398 1
1142 1431 1
1143 1362 1
1143 1397 1
1143 1398 1
1144 1145 1
1144 1147 1
1144 1366 1
1144 1401 1
1144 1403 1
1145 1146 1
1145 1147 1
1145 1148 1
1146 1147 1
1146 1148 1
1146 1149 1
1146 1151 1
1146 1176 1
1146 1177 1
1147 1148 1
1147 1176 1
1147 1401 1
1147 1403 1
1147 1404 1
1147 1436 1
1148 1149 1
1148 1151 1
1148 1370 1
1148 1403 1
1148 1404 1
1148 1407 1
1149 1150 1
1149 1151 1
1149 1152 1
1150 1151 1
1150 1152 1
1150 1153 1
1150 1155 1
1150 1177 1
1150 1180 1
1150 1181 1
1151 1152 1
1151 1176 1
1151 1177 1
1151 1180 1
1151 1404 1
1151 1407 1
1151 1408 1
1151 1440 1
1152 1153 1
1152 1155 1
1152 1374 1
1152 1407 1
1152 1408 1
1152 1411 1
1153 1154 1
1153 1155 1
1153 1156 1
1154 1155 1
1154 1156 1
1154 1157 1
1154 1159 1
1154 1181 1
1154 1184 1
1154 1185 1
1155 1156 1
1155 1180 1
1155 1181 1
1155 1184 1
1155 1408 1
1155 1411 1
1155 1412 1
1155 1444 1
1156 1157 1
1156 1159 1
1156 1378 1
1156 1411 1
1156 1412 1
1156 1415 1
1157 1158 1
1157 1159 1
1157 1160 1
1158 1159 1
1158 1160 1
1158 1161 1
1158 1163 1
1158 1185 1
1158 1188 1
1158 1189 1
1159 1160 1
1159 1184 1
1159 1185 1
1159 1188 1
1159 1412 1
1159 1415 1
1159 1416 1
1159 1448 1
1160 1161 1
1160 1163 1
1160 1382 1
1160 1415 1
1160 1416 1
1160 1419 1
1161 1162 1
1161 1163 1
1161 1164 1
1162 1163 1
1162 1164 1
1162 1165 1
1162 1167 1
1162 1189 1
1162 1192 1
1162 1193 1
1163 1164 1
1163 1188 1
1163 1189 1
1163 1192 1
1163 1416 1
1163 1419 1
1163 1420 1
1163 1452 1
1164 1165 1
1164 1167 1
1164 1386 1
1164 1419 1
1164 1420 1
1164 1423 1
1165 1166 1
1165 1167 1
1165 1168 1
1166 1167 1
1166 1168 1
1166 1169 1
1166 1171 1
1166 1193 1
1166 1196 1
1166 1197 1
1167 1168 1
1167 1192 1
1167 1193 1
1167 1196 1
1167 1420 1
1167 1423 1
1167 1424 1
1167 1456 1
1168 1169 1
1168 1171 1
1168 1390 1
1168 1423 1
1168 1424 1
1168 1427 1
1169 1170 1
1169 1171 1
1169 1172 1
1170 1171 1
1170 1172 1
1170 1173 1
1170 1174 1
1170 1197 1
1170 1199 1
1171 1172 1
1171 1196 1
1171 1197 1
1171 1199 1
1171 1424 1
1171 1427 1
1171 1428 1
1171 1460 1
1172 1173 1
1172 1174 1
1172 1394 1
1172 1427 1
1172 1428 1
1172 1431 1
1173 1174 1
1173 1175 1
1174 1175 1
1174 1199 1
1174 1428 1
1174 1431 1
1174 1432 1
1174 1464 1
1175 1398 1
1175 1431 1
1175 1432 1
1176 1177 1
1176 1179 1
1176 1404 1
1176 1436 1
1176 1437 1
1176 1440 1
1177 1178 1
1177 1179 1
1177 1180 1
1178 1179 1
1178 1180 1
1178 1181 1
1178 1183 1
1178 1200 1
1178 1201 1
1179 1180 1
1179 1200 1
1179 1437 1
1179 1440 1
1179 1441 1
1179 1468 1
1180 1181 1
1180 1183 1
1180 1408 1
1180 1440 1
1180 1441 1
1180 1444 1
1181 1182 1
1181 1183 1
1181 1184 1
1182 1183 1
1182 1184 1
1182 1185 1
1182 1187 1
1182 1201 1
1182 1204 1
1182 1205 1
1183 1184 1
1183 1200 1
1183 1201 1
1183 1204 1
1183 1441 1
1183 1444 1
1183 1445 1
1183 1472 1
1184 1185 1
1184 1187 1
1184 1412 1
1184 1444 1
1184 1445 1
1184 1448 1
1185 1186 1
1185 1187 1
1185 1188 1
1186 1187 1
1186 1188 1
1186 1189 1
1186 1191 1
1186 1205 1
1186 1208 1
1186 1209 1
1187 1188 1
1187 1204 1
1187 1205 1
1187 1208 1
1187 1445 1
1187 1448 1
1187 1449 1
1187 1476 1
1188 1189 1
1188 1191 1
1188 1416 1
1188 1448 1
1188 1449 1
1188 1452 1
1189 1190 1
1189 1191 1
1189 1192 1
1190 1191 1
1190 1192 1
1190 1193 1
1190 1195 1
1190 1209 1
1190 1212 1
1190 1213 1
1191 1192 1
1191 1208 1
1191 1209 1
1191 1212 1
1191 1449 1
1191 1452 1
1191 1453 1
1191 1480 1
1192 1193 1
1192 1195 1
1192 1420 1
1192 1452 1
1192 1453 1
1192 1456 1
1193 1194 1
1193 1195 1
1193 1196 1
1194 1195 1
1194 1196 1
1194 1197 1
1194 1198 1
1194 1213 1
1194 1215 1
1195 1196 1
1195 1212 1
1195 1213 1
1195 1215 1
1195 1453 1
1195 1456 1
1195 1457 1
1195 1484 1
1196 1197 1
1196 1198 1
1196 1424 1
1196 1456 1
1196 1457 1
1196 1460 1
1197 1198 1
1197 1199 1
1198 1199 1
1198 1215 1
1198 1457 1
1198 1460 1
1198 1461 1
1198 1488 1
1199 1428 1
1199 1460 1
1199 1461 1
1199 1464 1
1200 1201 1
1200 1203 1
1200 1441 1
1200 1468 1
1200 1469 1
1200 1472 1
1201 1202 1
1201 1203 1
1201 1204 1
1202 1203 1
1202 1204 1
1202 1205 1
1202 1207 1
1203 1204 1
1203 1469 1
1203 1472 1
1203 1473 1
1204 1205 1
1204 1207 1
1204 1445 1
1204 1472 1
1204 1473 1
1204 1476 1
1205 1206 1
1205 1207 1
1205 1208 1
1206 1207 1
1206 1208 1
1206 1209 1
1206 1211 1
1207 1208 1
1207 1473 1
1207 1476 1
1207 1477 1
1208 1209 1
1208 1211 1
1208 1449 1
1208 1476 1
1208 1477 1
1208 1480 1
1209 1210 1
1209 1211 1
1209 1212 1
1210 1211 1
1210 1212 1
1210 1213 1
1210 1214 1
1211 1212 1
1211 1477 1
1211 1480 1
1211 1481 1
1212 1213 1
1212 1214 1
1212 1453 1
1212 1480 1
1212 1481 1
1212 1484 1
1213 1214 1
1213 1215 1
1214 1215 1
1214 1481 1
1214 1484 1
1214 1485 1
1215 1457 1
1215 1484 1
1215 1485 1
1215 1488 1
1216 1217 1
1216 1219 1
1216 1235 1
1216 1238 1
1216 1239 1
1217 1234 1
1217 1235 1
1217 1238 1
1217 1491 1
1217 1512 1
1218 1219 1
1218 1220 1
1218 1221 1
1218 1223 1
1218 1239 1
1218 1242 1
1218 1243 1
1219 1220 1
1219 1238 1
1219 1239 1
1219 1242 1
1219 1491 1
1219 1493 1
1219 1494 1
1219 1516 1
1220 1221 1
1220 1223 1
1220 1493 1
1220 1494 1
1220 1497 1
1221 1222 1
1221 1223 1
1221 1224 1
1222 1223 1
1222 1224 1
1222 1225 1
1222 1227 1
1222 1243 1
1222 1246 1
1222 1247 1
1223 1224 1
1223 1242 1
1223 1243 1
1223 1246 1
1223 1494 1
1223 1497 1
1223 1498 1
1223 1520 1
1224 1225 1
1224 1227 1
1224 1497 1
1224 1498 1
1224 1501 1
1225 1226 1
1225 1227 1
1225 1228 1
1226 1227 1
1226 1228 1
1226 1230 1
1226 1247 1
1226 1250 1
1226 1251 1
1227 1228 1
1227 1246 1
1227 1247 1
1227 1250 1
1227 1498 1
1227 1501 1
1227 1502 1
1227 1524 1
1228 1230 1
1228 1501 1
1228 1502 1
1228 1505 1
1229 1230 1
1229 1231 1
1229 1251 1
1229 1254 1
1229 1255 1
1230 1250 1
1230 1251 1
1230 1254 1
1230 1502 1
1230 1505 1
1230 1506 1
1230 1528 1
1231 1254 1
1231 1255 1
1231 1258 1
1231 1506 1
1231 1532 1
1232 1233 1
1232 1234 1
1232 1235 1
1232 1237 1
1232 1262 1
1232 1265 1
1232 1266 1
1233 1234 1
1233 1261 1
1233 1262 1
1233 1265 1
1233 1509 1
1233 1539 1
1234 1235 1
1234 1237 1
1234 1509 1
1234 1512 1
1235 1236 1
1235 1237 1
1235 1238 1
1236 1237 1
1236 1238 1
1236 1239 1
1236 1241 1
1236 1266 1
1236 1269 1
1236 1270 1
1237 1238 1
1237 1265 1
1237 1266 1
1237 1269 1
1237 1509 1
1237 1512 1
1237 1513 1
1237 1543 1
1238 1239 1
1238 1241 1
1238 1491 1
1238 1512 1
1238 1513 1
1238 1516 1
1239 1240 1
1239 1241 1
1239 1242 1
1240 1241 1
1240 1242 1
1240 1243 1
1240 1245 1
1240 1270 1
1240 1273 1
1240 1274 1
1241 1242 1
1241 1269 1
1241 1270 1
1241 1273 1
1241 1513 1
1241 1516 1
1241 1517 1
1241 1547 1
1242 1243 1
1242 1245 1
1242 1494 1
1242 1516 1
1242 1517 1
1242 1520 1
1243 1244 1
1243 1245 1
1243 1246 1
1244 1245 1
1244 1246 1
1244 1247 1
1244 1249 1
1244 1274 1
1244 1277 1
1244 1278 1
1245 1246 1
1245 1273 1
1245 1274 1
1245 1277 1
1245 1517 1
1245 1520 1
1245 1521 1
1245 1551 1
1246 1247 1
1246 1249 1
1246 1498 1
1246 1520 1
1246 1521 1
1246 1524 1
1247 1248 1
1247 1249 1
1247 1250 1
1248 1249 1
1248 1250 1
1248 1251 1
1248 1253 1
1248 1278 1
1248 1281 1
1248 1282 1
1249 1250 1
1249 1277 1
1249 1278 1
1249 1281 1
1249 1521 1
1249 1524 1
1249 1525 1
1249 1555 1
1250 1251 1
1250 1253 1
1250 1502 1
1250 1524 1
1250 1525 1
1250 1528 1
1251 1252 1
1251 1253 1
1251 1254 1
1252 1253 1
1252 1254 1
1252 1255 1
1252 1257 1
1252 1282 1
1252 1285 1
1252 1286 1
1253 1254 1
1253 1281 1
1253 1282 1
1253 1285 1
1253 1525 1
1253 1528 1
1253 1529 1
1253 1559 1
1254 1255 1
1254 1257 1
1254 1506 1
1254 1528 1
1254 1529 1
1254 1532 1
1255 1256 1
1255 1257 1
1255 1258 1
1256 1257 1
1256 1258 1
1256 1259 1
1256 1286 1
1256 1289 1
1256 1290 1
1257 1258 1
1257 1285 1
1257 1286 1
1257 1289 1
1257 1529 1
1257 1532 1
1257 1533 1
1257 1563 1
1258 1259 1
1258 1532 1
1258 1533 1
1259 1289 1
1259 1290 1
1259 1293 1
1259 1533 1
1259 1567 1
1260 1261 1
1260 1262 1
1260 1264 1
1260 1296 1
1260 1297 1
1261 1262 1
1261 1264 1
1261 1537 1
1261 1539 1
1262 1263 1
1262 1264 1
1262 1265 1
1263 1264 1
1263 1265 1
1263 1266 1
1263 1268 1
1263 1297 1
1263 1300 1
1263 1301 1
1264 1265 1
1264 1296 1
1264 1297 1
1264 1300 1
1264 1537 1
1264 1539 1
1264 1540 1
1264 1575 1
1265 1266 1
1265 1268 1
1265 1509 1
1265 1539 1
1265 1540 1
1265 1543 1
1266 1267 1
1266 1268 1
1266 1269 1
1267 1268 1
1267 1269 1
1267 1270 1
1267 1272 1
1267 1301 1
1267 1304 1
1267 1305 1
1268 1269 1
1268 1300 1
1268 1301 1
1268 1304 1
1268 1540 1
1268 1543 1
1268 1544 1
1268 1579 1
1269 1270 1
1269 1272 1
1269 1513 1
1269 1543 1
1269 1544 1
1269 1547 1
1270 1271 1
1270 1272 1
1270 1273 1
1271 1272 1
1271 1273 1
1271 1274 1
1271 1276 1
1271 1305 1
1271 1308 1
1271 1309 1
1272 1273 1
1272 1304 1
1272 1305 1
1272 1308 1
1272 1544 1
1272 1547 1
1272 1548 1
1272 1583 1
1273 1274 1
1273 1276 1
1273 1517 1
1273 1547 1
1273 1548 1
1273 1551 1
1274 1275 1
1274 1276 1
1274 1277 1
1275 1276 1
1275 1277 1
1275 1278 1
1275 1280 1
1275 1309 1
1275 1312 1
1275 1313 1
1276 1277 1
1276 1308 1
1276 1309 1
1276 1312 1
1276 1548 1
1276 1551 1
1276 1552 1
1276 1587 1
1277 1278 1
1277 1280 1
1277 1521 1
1277 1551 1
1277 1552 1
1277 1555 1
1278 1279 1
1278 1280 1
1278 1281 1
1279 1280 1
1279 1281 1
1279 1282 1
1279 1284 1
1279 1313 1
1279 1316 1
1279 1317 1
1280 1281 1
1280 1312 1
1280 1313 1
1280 1316 1
1280 1552 1
1280 1555 1
1280 1556 1
1280 1591 1
1281 1282 1
1281 1284 1
1281 1525 1
1281 1555 1
1281 1556 1
1281 1559 1
1282 1283 1
1282 1284 1
1282 1285 1
1283 1284 1
1283 1285 1
1283 1286 1
1283 1288 1
1283 1317 1
1283 1320 1
1283 1321 1
1284 1285 1
1284 1316 1
1284 1317 1
1284 1320 1
1284 1556 1
1284 1559 1
1284 1560 1
1284 1595 1
1285 1286 1
1285 1288 1
1285 1529 1
1285 1559 1
1285 1560 1
1285 1563 1
1286 1287 1
1286 1288 1
1286 1289 1
1287 1288 1
1287 1289 1
1287 1290 1
1287 1292 1
1287 1321 1
1287 1324 1
1287 1325 1
1288 1289 1
1288 1320 1
1288 1321 1
1288 1324 1
1288 1560 1
1288 1563 1
1288 1564 1
1288 1599 1
1289 1290 1
1289 1292 1
1289 1533 1
1289 1563 1
1289 1564 1
1289 1567 1
1290 1291 1
1290 1292 1
1290 1293 1
1291 1292 1
1291 1293 1
1291 1325 1
1291 1328 1
1292 1293 1
1292 1324 1
1292 1325 1
1292 1328 1
1292 1564 1
1292 1567 1
1292 1568 1
1292 1603 1
1293 1567 1
1293 1568 1
1294 1295 1
1294 1296 1
1294 1297 1
1294 1299 1
1294 1329 1
1294 1332 1
1294 1333 1
1295 1296 1
1295 1329 1
1295 1332 1
1295 1571 1
1295 1572 1
1295 1607 1
1296 1297 1
1296 1299 1
1296 1537 1
1296 1571 1
1296 1572 1
1296 1575 1
1297 1298 1
1297 1299 1
1297 1300 1
1298 1299 1
1298 1300 1
1298 1301 1
1298 1303 1
1298 1333 1
1298 1336 1
1298 1337 1
1299 1300 1
1299 1332 1
1299 1333 1
1299 1336 1
1299 1572 1
1299 1575 1
1299 1576 1
1299 1611 1
1300 1301 1
1300 1303 1
1300 1540 1
1300 1575 1
1300 1576 1
1300 1579 1
1301 1302 1
1301 1303 1
1301 1304 1
1302 1303 1
1302 1304 1
1302 1305 1
1302 1307 1
1302 1337 1
1302 1340 1
1302 1341 1
1303 1304 1
1303 1336 1
1303 1337 1
1303 1340 1
1303 1576 1
1303 1579 1
1303 1580 1
1303 1615 1
1304 1305 1
1304 1307 1
1304 1544 1
1304 1579 1
1304 1580 1
1304 1583 1
1305 1306 1
1305 1307 1
1305 1308 1
1306 1307 1
1306 1308 1
1306 1309 1
1306 1311 1
1306 1341 1
1306 1344 1
1306 1345 1
1307 1308 1
1307 1340 1
1307 1341 1
1307 1344 1
1307 1580 1
1307 1583 1
1307 1584 1
1307 1619 1
1308 1309 1
1308 1311 1
1308 1548 1
1308 1583 1
1308 1584 1
1308 1587 1
1309 1310 1
1309 1311 1
1309 1312 1
1310 1311 1
1310 1312 1
1310 1313 1
1310 1315 1
1310 1345 1
1310 1348 1
1310 1349 1
1311 1312 1
1311 1344 1
1311 1345 1
1311 1348 1
1311 1584 1
1311 1587 1
1311 1588 1
1311 1623 1
1312 1313 1
1312 1315 1
1312 1552 1
1312 1587 1
1312 1588 1
1312 1591 1
1313 1314 1
1313 1315 1
1313 1316 1
1314 1315 1
1314 1316 1
1314 1317 1
1314 1319 1
1314 1349 1
1314 1352 1
1314 1353 1
1315 1316 1
1315 1348 1
1315 1349 1
1315 1352 1
1315 1588 1
1315 1591 1
1315 1592 1
1315 1627 1
1316 1317 1
1316 1319 1
1316 1556 1
1316 1591 1
1316 1592 1
1316 1595 1
1317 1318 1
1317 1319 1
1317 1320 1
1318 1319 1
1318 1320 1
1318 1321 1
1318 1323 1
1318 1353 1
1318 1356 1
1318 1357 1
1319 1320 1
1319 1352 1
1319 1353 1
1319 1356 1
1319 1592 1
1319 1595 1
1319 1596 1
1319 1631 1
1320 1321 1
1320 1323 1
1320 1560 1
1320 1595 1
1320 1596 1
1320 1599 1
1321 1322 1
1321 1323 1
1321 1324 1
1322 1323 1
1322 1324 1
1322 1325 1
1322 1327 1
1322 1357 1
1322 1360 1
1322 1361 1
1323 1324 1
1323 1356 1
1323 1357 1
1323 1360 1
1323 1596 1
1323 1599 1
1323 1600 1
1323 1635 1
1324 1325 1
1324 1327 1
1324 1564 1
1324 1599 1
1324 1600 1
1324 1603 1
1325 1326 1
1325 1327 1
1325 1328 1
1326 1327 1
1326 1328 1
1326 1361 1
1326 1364 1
1327 1328 1
1327 1360 1
1327 1361 1
1327 1364 1
1327 1600 1
1327 1603 1
1327 1604 1
1327 1639 1
1328 1568 1
1328 1603 1
1328 1604 1
1329 1330 1
1329 1331 1
1329 1332 1
1330 1331 1
1330 1332 1
1330 1333 1
1330 1335 1
1330 1365 1
1330 1368 1
1330 1369 1
1331 1332 1
1331 1365 1
1331 1368 1
1331 1607 1
1331 1608 1
1331 1643 1
1332 1333 1
1332 1335 1
1332 1572 1
1332 1607 1
1332 1608 1
1332 1611 1
1333 1334 1
1333 1335 1
1333 1336 1
1334 1335 1
1334 1336 1
1334 1337 1
1334 1339 1
1334 1369 1
1334 1372 1
1334 1373 1
1335 1336 1
1335 1368 1
1335 1369 1
1335 1372 1
1335 1608 1
1335 1611 1
1335 1612 1
1335 1647 1
1336 1337 1
1336 1339 1
1336 1576 1
1336 1611 1
1336 1612 1
1336 1615 1
1337 1338 1
1337 1339 1
1337 1340 1
1338 1339 1
1338 1340 1
1338 1341 1
1338 1343 1
1338 1373 1
1338 1376 1
1338 1377 1
1339 1340 1
1339 1372 1
1339 1373 1
1339 1376 1
1339 1612 1
1339 1615 1
1339 1616 1
1339 1651 1
1340 1341 1
1340 1343 1
1340 1580 1
1340 1615 1
1340 1616 1
1340 1619 1
1341 1342 1
1341 1343 1
1341 1344 1
1342 1343 1
1342 1344 1
1342 1345 1
1342 1347 1
1342 1377 1
1342 1380 1
1342 1381 1
1343 1344 1
1343 1376 1
1343 1377 1
1343 1380 1
1343 1616 1
1343 1619 1
1343 1620 1
1343 1655 1
1344 1345 1
1344 1347 1
1344 1584 1
1344 1619 1
1344 1620 1
1344 1623 1
1345 1346 1
1345 1347 1
1345 1348 1
1346 1347 1
1346 1348 1
1346 1349 1
1346 1351 1
1346 1381 1
1346 1384 1
1346 1385 1
1347 1348 1
1347 1380 1
1347 1381 1
1347 1384 1
1347 1620 1
1347 1623 1
1347 1624 1
1347 1659 1
1348 1349 1
1348 1351 1
1348 1588 1
1348 1623 1
1348 1624 1
1348 1627 1
1349 1350 1
1349 1351 1
1349 1352 1
1350 1351 1
1350 1352 1
1350 1353 1
1350 1355 1
1350 1385 1
1350 1388 1
1350 1389 1
1351 1352 1
1351 1384 1
1351 1385 1
1351 1388 1
1351 1624 1
1351 1627 1
1351 1628 1
1351 1663 1
1352 1353 1
1352 1355 1
1352 1592 1
1352 1627 1
1352 1628 1
1352 1631 1
1353 1354 1
1353 1355 1
1353 1356 1
1354 1355 1
1354 1356 1
1354 1357 1
1354 1359 1
1354 1389 1
1354 1392 1
1354 1393 1
1355 1356 1
1355 1388 1
1355 1389 1
1355 1392 1
1355 1628 1
1355 1631 1
1355 1632 1
1355 1667 1
1356 1357 1
1356 1359 1
1356 1596 1
1356 1631 1
1356 1632 1
1356 1635 1
1357 1358 1
1357 1359 1
1357 1360 1
1358 1359 1
1358 1360 1
1358 1361 1
1358 1363 1
1358 1393 1
1358 1396 1
1358 1397 1
1359 1360 1
1359 1392 1
1359 1393 1
1359 1396 1
1359 1632 1
1359 1635 1
1359 1636 1
1359 1671 1
1360 1361 1
1360 1363 1
1360 1600 1
1360 1635 1
1360 1636 1
1360 1639 1
1361 1362 1
1361 1363 1
1361 1364 1
1362 1363 1
1362 1364 1
1362 1397 1
1362 1400 1
1363 1364 1
1363 1396 1
1363 1397 1
1363 1400 1
1363 1636 1
1363 1639 1
1363 1640 1
1363 1675 1
1364 1604 1
1364 1639 1
1364 1640 1
1365 1366 1
1365 1367 1
1365 1368 1
1366 1367 1
1366 1368 1
1366 1369 1
1366 1371 1
1366 1402 1
1366 1403 1
1367 1368 1
1367 1402 1
1367 1643 1
1367 1644 1
1367 1679 1
1368 1369 1
1368 1371 1
1368 1608 1
1368 1643 1
1368 1644 1
1368 1647 1
1369 1370 1
1369 1371 1
1369 1372 1
1370 1371 1
1370 1372 1
1370 1373 1
1370 1375 1
1370 1403 1
1370 1406 1
1370 1407 1
1371 1372 1
1371 1402 1
1371 1403 1
1371 1406 1
1371 1644 1
1371 1647 1
1371 1648 1
1371 1682 1
1372 1373 1
1372 1375 1
1372 1612 1
1372 1647 1
1372 1648 1
1372 1651 1
1373 1374 1
1373 1375 1
1373 1376 1
1374 1375 1
1374 1376 1
1374 1377 1
1374 1379 1
1374 1407 1
1374 1410 1
1374 1411 1
1375 1376 1
1375 1406 1
1375 1407 1
1375 1410 1
1375 1648 1
1375 1651 1
1375 1652 1
1375 1686 1
1376 1377 1
1376 1379 1
1376 1616 1
1376 1651 1
1376 1652 1
1376 1655 1
1377 1378 1
1377 1379 1
1377 1380 1
1378 1379 1
1378 1380 1
1378 1381 1
1378 1383 1
1378 1411 1
1378 1414 1
1378 1415 1
1379 1380 1
1379 1410 1
1379 1411 1
1379 1414 1
1379 1652 1
1379 1655 1
1379 1656 1
1379 1690 1
1380 1381 1
1380 1383 1
1380 1620 1
1380 1655 1
1380 1656 1
1380 1659 1
1381 1382 1
1381 1383 1
1381 1384 1
1382 1383 1
1382 1384 1
1382 1385 1
1382 1387 1
1382 1415 1
1382 1418 1
1382 1419 1
1383 1384 1
1383 1414 1
1383 1415 1
1383 1418 1
1383 1656 1
1383 1659 1
1383 1660 1
1383 1694 1
1384 1385 1
1384 1387 1
1384 1624 1
1384 1659 1
1384 1660 1
1384 1663 1
1385 1386 1
1385 1387 1
1385 1388 1
1386 1387 1
1386 1388 1
1386 1389 1
1386 1391 1
1386 1419 1
1386 1422 1
1386 1423 1
1387 1388 1
1387 1418 1
1387 1419 1
1387 1422 1
1387 1660 1
1387 1663 1
1387 1664 1
1387 1698 1
1388 1389 1
1388 1391 1
1388 1628 1
1388 1663 1
1388 1664 1
1388 1667 1
1389 1390 1
1389 1391 1
1389 1392 1
1390 1391 1
1390 1392 1
1390 1393 1
1390 1395 1
1390 1423 1
1390 1426 1
1390 1427 1
1391 1392 1
1391 1422 1
1391 1423 1
1391 1426 1
1391 1664 1
1391 1667 1
1391 1668 1
1391 1702 1
1392 1393 1
1392 1395 1
1392 1632 1
1392 1667 1
1392 1668 1
1392 1671 1
1393 1394 1
1393 1395 1
1393 1396 1
1394 1395 1
1394 1396 1
1394 1397 1
1394 1399 1
1394 1427 1
1394 1430 1
1394 1431 1
1395 1396 1
1395 1426 1
1395 1427 1
1395 1430 1
1395 1668 1
1395 1671 1
1395 1672 1
1395 1706 1
1396 1397 1
1396 1399 1
1396 1636 1
1396 1671 1
1396 1672 1
1396 1675 1
1397 1398 1
1397 1399 1
1397 1400 1
1398 1399 1
1398 1400 1
1398 1431 1
1398 1434 1
1399 1400 1
1399 1430 1
1399 1431 1
1399 1434 1
1399 1672 1
1399 1675 1
1399 1676 1
1399 1710 1
1400 1640 1
1400 1675 1
1400 1676 1
1401 1402 1
1401 1403 1
1401 1405 1
1401 1435 1
1401 1436 1
1402 1403 1
1402 1405 1
1402 1644 1
1402 1679 1
1402 1680 1
1402 1682 1
1403 1404 1
1403 1405 1
1403 1406 1
1404 1405 1
1404 1406 1
1404 1407 1
1404 1409 1
1404 1436 1
1404 1439 1
1404 1440 1
1405 1406 1
1405 1435 1
1405 1436 1
1405 1439 1
1405 1680 1
1405 1682 1
1405 1683 1
1405 1715 1
1406 1407 1
1406 1409 1
1406 1648 1
1406 1682 1
1406 1683 1
1406 1686 1
1407 1408 1
1407 1409 1
1407 1410 1
1408 1409 1
1408 1410 1
1408 1411 1
1408 1413 1
1408 1440 1
1408 1443 1
1408 1444 1
1409 1410 1
1409 1439 1
1409 1440 1
1409 1443 1
1409 1683 1
1409 1686 1
1409 1687 1
1409 1719 1
1410 1411 1
1410 1413 1
1410 1652 1
1410 1686 1
1410 1687 1
1410 1690 1
1411 1412 1
1411 1413 1
1411 1414 1
1412 1413 1
1412 1414 1
1412 1415 1
1412 1417 1
1412 1444 1
1412 1447 1
1412 1448 1
1413 1414 1
1413 1443 1
1413 1444 1
1413 1447 1
1413 1687 1
1413 1690 1
1413 1691 1
1413 1723 1
1414 1415 1
1414 1417 1
1414 1656 1
1414 1690 1
1414 1691 1
1414 1694 1
1415 1416 1
1415 1417 1
1415 1418 1
1416 1417 1
1416 1418 1
1416 1419 1
1416 1421 1
1416 1448 1
1416 1451 1
1416 1452 1
1417 1418 1
1417 1447 1
1417 1448 1
1417 1451 1
1417 1691 1
1417 1694 1
1417 1695 1
1417 1727 1
1418 1419 1
1418 1421 1
1418 1660 1
1418 1694 1
1418 1695 1
1418 1698 1
1419 1420 1
1419 1421 1
1419 1422 1
1420 1421 1
1420 1422 1
1420 1423 1
1420 1425 1
1420 1452 1
1420 1455 1
1420 1456 1
1421 1422 1
1421 1451 1
1421 1452 1
1421 1455 1
1421 1695 1
1421 1698 1
1421 1699 1
1421 1731 1
1422 1423 1
1422 1425 1
1422 1664 1
1422 1698 1
1422 1699 1
1422 1702 1
1423 1424 1
1423 1425 1
1423 1426 1
1424 1425 1
1424 1426 1
1424 1427 1
1424 1429 1
1424 1456 1
1424 1459 1
1424 1460 1
1425 1426 1
1425 1455 1
1425 1456 1
1425 1459 1
1425 1699 1
1425 1702 1
1425 1703 1
1425 1735 1
1426 1427 1
1426 1429 1
1426 1668 1
1426 1702 1
1426 1703 1
1426 1706 1
1427 1428 1
1427 1429 1
1427 1430 1
1428 1429 1
1428 1430 1
1428 1431 1
1428 1433 1
1428 1460 1
1428 1463 1
1428 1464 1
1429 1430 1
1429 1459 1
1429 1460 1
1429 1463 1
1429 1703 1
1429 1706 1
1429 1707 1
1429 1739 1
1430 1431 1
1430 1433 1
1430 1672 1
1430 1706 1
1430 1707 1
1430 1710 1
1431 1432 1
1431 1433 1
1431 1434 1
1432 1433 1
1432 1434 1
1432 1464 1
1432 1466 1
1433 1434 1
1433 1463 1
1433 1464 1
1433 1466 1
1433 1707 1
1433 1710 1
1433 1711 1
1433 1743 1
1434 1676 1
1434 1710 1
1434 1711 1
1435 1436 1
1435 1438 1
1435 1680 1
1435 1715 1
1436 1437 1
1436 1438 1
1436 1439 1
1437 1438 1
1437 1439 1
1437 1440 1
1437 1442 1
1437 1467 1
1437 1468 1
1438 1439 1
1438 1467 1
1438 1715 1
1438 1716 1
1439 1440 1
1439 1442 1
1439 1683 1
1439 1715 1
1439 1716 1
1439 1719 1
1440 1441 1
1440 1442 1
1440 1443 1
1441 1442 1
1441 1443 1
1441 1444 1
1441 1446 1
1441 1468 1
1441 1471 1
1441 1472 1
1442 1443 1
1442 1467 1
1442 1468 1
1442 1471 1
1442 1716 1
1442 1719 1
1442 1720 1
1442 1747 1
1443 1444 1
1443 1446 1
1443 1687 1
1443 1719 1
1443 1720 1
1443 1723 1
1444 1445 1
1444 1446 1
1444 1447 1
1445 1446 1
1445 1447 1
1445 1448 1
1445 1450 1
1445 1472 1
1445 1475 1
1445 1476 1
1446 1447 1
1446 1471 1
1446 1472 1
1446 1475 1
1446 1720 1
1446 1723 1
1446 1724 1
1446 1751 1
1447 1448 1
1447 1450 1
1447 1691 1
1447 1723 1
1447 1724 1
1447 1727 1
1448 1449 1
1448 1450 1
1448 1451 1
1449 1450 1
1449 1451 1
1449 1452 1
1449 1454 1
1449 1476 1
1449 1479 1
1449 1480 1
1450 1451 1
1450 1475 1
1450 1476 1
1450 1479 1
1450 1724 1
1450 1727 1
1450 1728 1
1450 1755 1
1451 1452 1
1451 1454 1
1451 1695 1
1451 1727 1
1451 1728 1
1451 1731 1
1452 1453 1
1452 1454 1
1452 1455 1
1453 1454 1
1453 1455 1
1453 1456 1
1453 1458 1
1453 1480 1
1453 1483 1
1453 1484 1
1454 1455 1
1454 1479 1
1454 1480 1
1454 1483 1
1454 1728 1
1454 1731 1
1454 1732 1
1454 1759 1
1455 1456 1
1455 1458 1
1455 1699 1
1455 1731 1
1455 1732 1
1455 1735 1
1456 1457 1
1456 1458 1
1456 1459 1
1457 1458 1
1457 1459 1
1457 1460 1
1457 1462 1
1457 1484 1
1457 1487 1
1457 1488 1
1458 1459 1
1458 1483 1
1458 1484 1
1458 1487 1
1458 1732 1
1458 1735 1
1458 1736 1
1458 1763 1
1459 1460 1
1459 1462 1
1459 1703 1
1459 1735 1
1459 1736 1
1459 1739 1
1460 1461 1
1460 1462 1
1460 1463 1
1461 1462 1
1461 1463 1
1461 1464 1
1461 1465 1
1461 1488 1
1461 1490 1
1462 1463 1
1462 1487 1
1462 1488 1
1462 1490 1
1462 1736 1
1462 1739 1
1462 1740 1
1462 1767 1
1463 1464 1
1463 1465 1
1463 1707 1
1463 1739 1
1463 1740 1
1463 1743 1
1464 1465 1
1464 1466 1
1465 1466 1
1465 1490 1
1465 1740 1
1465 1743 1
1466 1711 1
1466 1743 1
1467 1468 1
1467 1470 1
1467 1716 1
1467 1747 1
1468 1469 1
1468 1470 1
1468 1471 1
1469 1470 1
1469 1471 1
1469 1472 1
1469 1474 1
1470 1471 1
1470 1747 1
1470 1748 1
1471 1472 1
1471 1474 1
1471 1720 1
1471 1747 1
1471 1748 1
1471 1751 1
1472 1473 1
1472 1474 1
1472 1475 1
1473 1474 1
1473 1475 1
1473 1476 1
1473 1478 1
1474 1475 1
1474 1748 1
1474 1751 1
1474 1752 1
1475 1476 1
1475 1478 1
1475 1724 1
1475 1751 1
1475 1752 1
1475 1755 1
1476 1477 1
1476 1478 1
1476 1479 1
1477 1478 1
1477 1479 1
1477 1480 1
1477 1482 1
1478 1479 1
1478 1752 1
1478 1755 1
1478 1756 1
1479 1480 1
1479 1482 1
1479 1728 1
1479 1755 1
1479 1756 1
1479 1759 1
1480 1481 1
1480 1482 1
1480 1483 1
1481 1482 1
1481 1483 1
1481 1484 1
1481 1486 1
1482 1483 1
1482 1756 1
1482 1759 1
1482 1760 1
1483 1484 1
1483 1486 1
1483 1732 1
1483 1759 1
1483 1760 1
1483 1763 1
1484 1485 1
1484 1486 1
1484 1487 1
1485 1486 1
1485 1487 1
1485 1488 1
1485 1489 1
1486 1487 1
1486 1760 1
1486 1763 1
1486 1764 1
1487 1488 1
1487 1489 1
1487 1736 1
1487 1763 1
1487 1764 1
1487 1767 1
1488 1489 1
1488 1490 1
1489 1490 1
1489 1764 1
1489 1767 1
1490 1740 1
1490 1767 1
1491 1492 1
1491 1493 1
1491 1495 1
1491 1512 1
1491 1515 1
1491 1516 1
1492 1511 1
1492 1512 1
1492 1515 1
1492 1770 1
1492 1791 1
1493 1494 1
1493 1495 1
1493 1496 1
1494 1495 1
1494 1496 1
1494 1497 1
1494 1499 1
1494 1516 1
1494 1519 1
1494 1520 1
1495 1496 1
1495 1515 1
1495 1516 1
1495 1519 1
1495 1770 1
1495 1772 1
1495 1773 1
1495 1795 1
1496 1497 1
1496 1499 1
1496 1772 1
1496 1773 1
1496 1776 1
1497 1498 1
1497 1499 1
1497 1500 1
1498 1499 1
1498 1500 1
1498 1501 1
1498 1503 1
1498 1520 1
1498 1523 1
1498 1524 1
1499 1500 1
1499 1519 1
1499 1520 1
1499 1523 1
1499 1773 1
1499 1776 1
1499 1777 1
1499 1799 1
1500 1501 1
1500 1503 1
1500 1776 1
1500 1777 1
1500 1780 1
1501 1502 1
1501 1503 1
1501 1504 1
1502 1503 1
1502 1504 1
1502 1505 1
1502 1507 1
1502 1524 1
1502 1527 1
1502 1528 1
1503 1504 1
1503 1523 1
1503 1524 1
1503 1527 1
1503 1777 1
1503 1780 1
1503 1781 1
1503 1803 1
1504 1505 1
1504 1507 1
1504 1780 1
1504 1781 1
1504 1784 1
1505 1506 1
1505 1507 1
1506 1507 1
1506 1508 1
1506 1528 1
1506 1531 1
1506 1532 1
1507 1527 1
1507 1528 1
1507 1531 1
1507 1781 1
1507 1784 1
1507 1785 1
1507 1807 1
1508 1531 1
1508 1532 1
1508 1535 1
1508 1785 1
1508 1811 1
1509 1510 1
1509 1511 1
1509 1512 1
1509 1514 1
1509 1539 1
1509 1542 1
1509 1543 1
1510 1511 1
1510 1538 1
1510 1539 1
1510 1542 1
1510 1788 1
1510 1818 1
1511 1512 1
1511 1514 1
1511 1788 1
1511 1791 1
1512 1513 1
1512 1514 1
1512 1515 1
1513 1514 1
1513 1515 1
1513 1516 1
1513 1518 1
1513 1543 1
1513 1546 1
1513 1547 1
1514 1515 1
1514 1542 1
1514 1543 1
1514 1546 1
1514 1788 1
1514 1791 1
1514 1792 1
1514 1822 1
1515 1516 1
1515 1518 1
1515 1770 1
1515 1791 1
1515 1792 1
1515 1795 1
1516 1517 1
1516 1518 1
1516 1519 1
1517 1518 1
1517 1519 1
1517 1520 1
1517 1522 1
1517 1547 1
1517 1550 1
1517 1551 1
1518 1519 1
1518 1546 1
1518 1547 1
1518 1550 1
1518 1792 1
1518 1795 1
1518 1796 1
1518 1826 1
1519 1520 1
1519 1522 1
1519 1773 1
1519 1795 1
1519 1796 1
1519 1799 1
1520 1521 1
1520 1522 1
1520 1523 1
1521 1522 1
1521 1523 1
1521 1524 1
1521 1526 1
1521 1551 1
1521 1554 1
1521 1555 1
1522 1523 1
1522 1550 1
1522 1551 1
1522 1554 1
1522 1796 1
1522 1799 1
1522 1800 1
1522 1830 1
1523 1524 1
1523 1526 1
1523 1777 1
1523 1799 1
1523 1800 1
1523 1803 1
1524 1525 1
1524 1526 1
1524 1527 1
1525 1526 1
1525 1527 1
1525 1528 1
1525 1530 1
1525 1555 1
1525 1558 1
1525 1559 1
1526 1527 1
1526 1554 1
1526 1555 1
1526 1558 1
1526 1800 1
1526 1803 1
1526 1804 1
1526 1834 1
1527 1528 1
1527 1530 1
1527 1781 1
1527 1803 1
1527 1804 1
1527 1807 1
1528 1529 1
1528 1530 1
1528 1531 1
1529 1530 1
1529 1531 1
1529 1532 1
1529 1534 1
1529 1559 1
1529 1562 1
1529 1563 1
1530 1531 1
1530 1558 1
1530 1559 1
1530 1562 1
1530 1804 1
1530 1807 1
1530 1808 1
1530 1838 1
1531 1532 1
1531 1534 1
1531 1785 1
1531 1807 1
1531 1808 1
1531 1811 1
1532 1533 1
1532 1534 1
1532 1535 1
1533 1534 1
1533 1535 1
1533 1536 1
1533 1563 1
1533 1566 1
1533 1567 1
1534 1535 1
1534 1562 1
1534 1563 1
1534 1566 1
1534 1808 1
1534 1811 1
1534 1812 1
1534 1842 1
1535 1536 1
1535 1811 1
1535 1812 1
1536 1566 1
1536 1567 1
1536 1570 1
1536 1812 1
1536 1846 1
1537 1538 1
1537 1539 1
1537 1541 1
1537 1571 1
1537 1574 1
1537 1575 1
1538 1539 1
1538 1541 1
1538 1816 1
1538 1818 1
1539 1540 1
1539 1541 1
1539 1542 1
1540 1541 1
1540 1542 1
1540 1543 1
1540 1545 1
1540 1575 1
1540 1578 1
1540 1579 1
1541 1542 1
1541 1574 1
1541 1575 1
1541 1578 1
1541 1816 1
1541 1818 1
1541 1819 1
1541 1854 1
1542 1543 1
1542 1545 1
1542 1788 1
1542 1818 1
1542 1819 1
1542 1822 1
1543 1544 1
1543 1545 1
1543 1546 1
1544 1545 1
1544 1546 1
1544 1547 1
1544 1549 1
1544 1579 1
1544 1582 1
1544 1583 1
1545 1546 1
1545 1578 1
1545 1579 1
1545 1582 1
1545 1819 1
1545 1822 1
1545 1823 1
1545 1858 1
1546 1547 1
1546 1549 1
1546 1792 1
1546 1822 1
1546 1823 1
1546 1826 1
1547 1548 1
1547 1549 1
1547 1550 1
1548 1549 1
1548 1550 1
1548 1551 1
1548 1553 1
1548 1583 1
1548 1586 1
1548 1587 1
1549 1550 1
1549 1582 1
1549 1583 1
1549 1586 1
1549 1823 1
1549 1826 1
1549 1827 1
1549 1862 1
1550 1551 1
1550 1553 1
1550 1796 1
1550 1826 1
1550 1827 1
1550 1830 1
1551 1552 1
1551 1553 1
1551 1554 1
1552 1553 1
1552 1554 1
1552 1555 1
1552 1557 1
1552 1587 1
1552 1590 1
1552 1591 1
1553 1554 1
1553 1586 1
1553 1587 1
1553 1590 1
1553 1827 1
1553 1830 1
1553 1831 1
1553 1866 1
1554 1555 1
1554 1557 1
1554 1800 1
1554 1830 1
1554 1831 1
1554 1834 1
1555 1556 1
1555 1557 1
1555 1558 1
1556 1557 1
1556 1558 1
1556 1559 1
1556 1561 1
1556 1591 1
1556 1594 1
1556 1595 1
1557 1558 1
1557 1590 1
1557 1591 1
1557 1594 1
1557 1831 1
1557 1834 1
1557 1835 1
1557 1870 1
1558 1559 1
1558 1561 1
1558 1804 1
1558 1834 1
1558 1835 1
1558 1838 1
1559 1560 1
1559 1561 1
1559 1562 1
1560 1561 1
1560 1562 1
1560 1563 1
1560 1565 1
1560 1595 1
1560 1598 1
1560 1599 1
1561 1562 1
1561 1594 1
1561 1595 1
1561 1598 1
1561 1835 1
1561 1838 1
1561 1839 1
1561 1874 1
1562 1563 1
1562 1565 1
1562 1808 1
1562 1838 1
1562 1839 1
1562 1842 1
1563 1564 1
1563 1565 1
1563 1566 1
1564 1565 1
1564 1566 1
1564 1567 1
1564 1569 1
1564 1599 1
1564 1602 1
1564 1603 1
1565 1566 1
1565 1598 1
1565 1599 1
1565 1602 1
1565 1839 1
1565 1842 1
1565 1843 1
1565 1878 1
1566 1567 1
1566 1569 1
1566 1812 1
1566 1842 1
1566 1843 1
1566 1846 1
1567 1568 1
1567 1569 1
1567 1570 1
1568 1569 1
1568 1570 1
1568 1603 1
1568 1606 1
1569 1570 1
1569 1602 1
1569 1603 1
1569 1606 1
1569 1843 1
1569 1846 1
1569 1847 1
1569 1882 1
1570 1846 1
1570 1847 1
1571 1572 1
1571 1573 1
1571 1574 1
1572 1573 1
1572 1574 1
1572 1575 1
1572 1577 1
1572 1607 1
1572 1610 1
1572 1611 1
1573 1574 1
1573 1607 1
1573 1610 1
1573 1850 1
1573 1851 1
1573 1886 1
1574 1575 1
1574 1577 1
1574 1816 1
1574 1850 1
1574 1851 1
1574 1854 1
1575 1576 1
1575 1577 1
1575 1578 1
1576 1577 1
1576 1578 1
1576 1579 1
1576 1581 1
1576 1611 1
1576 1614 1
1576 1615 1
1577 1578 1
1577 1610 1
1577 1611 1
1577 1614 1
1577 1851 1
1577 1854 1
1577 1855 1
1577 1890 1
1578 1579 1
1578 1581 1
1578 1819 1
1578 1854 1
1578 1855 1
1578 1858 1
1579 1580 1
1579 1581 1
1579 1582 1
1580 1581 1
1580 1582 1
1580 1583 1
1580 1585 1
1580 1615 1
1580 1618 1
1580 1619 1
1581 1582 1
1581 1614 1
1581 1615 1
1581 1618 1
1581 1855 1
1581 1858 1
1581 1859 1
1581 1894 1
1582 1583 1
1582 1585 1
1582 1823 1
1582 1858 1
1582 1859 1
1582 1862 1
1583 1584 1
1583 1585 1
1583 1586 1
1584 1585 1
1584 1586 1
1584 1587 1
1584 1589 1
1584 1619 1
1584 1622 1
1584 1623 1
1585 1586 1
1585 1618 1
1585 1619 1
1585 1622 1
1585 1859 1
1585 1862 1
1585 1863 1
1585 1898 1
1586 1587 1
1586 1589 1
1586 1827 1
1586 1862 1
1586 1863 1
1586 1866 1
1587 1588 1
1587 1589 1
1587 1590 1
1588 1589 1
1588 1590 1
1588 1591 1
1588 1593 1
1588 1623 1
1588 1626 1
1588 1627 1
1589 1590 1
1589 1622 1
1589 1623 1
1589 1626 1
1589 1863 1
1589 1866 1
1589 1867 1
1589 1902 1
1590 1591 1
1590 1593 1
1590 1831 1
1590 1866 1
1590 1867 1
1590 1870 1
1591 1592 1
1591 1593 1
1591 1594 1
1592 1593 1
1592 1594 1
1592 1595 1
1592 1597 1
1592 1627 1
1592 1630 1
1592 1631 1
1593 1594 1
1593 1626 1
1593 1627 1
1593 1630 1
1593 1867 1
1593 1870 1
1593 1871 1
1593 1906 1
1594 1595 1
1594 1597 1
1594 1835 1
1594 1870 1
1594 1871 1
1594 1874 1
1595 1596 1
1595 1597 1
1595 1598 1
1596 1597 1
1596 1598 1
1596 1599 1
1596 1601 1
1596 1631 1
1596 1634 1
1596 1635 1
1597 1598 1
1597 1630 1
1597 1631 1
1597 1634 1
1597 1871 1
1597 1874 1
1597 1875 1
1597 1910 1
1598 1599 1
1598 1601 1
1598 1839 1
1598 1874 1
1598 1875 1
1598 1878 1
1599 1600 1
1599 1601 1
1599 1602 1
1600 1601 1
1600 1602 1
1600 1603 1
1600 1605 1
1600 1635 1
1600 1638 1
1600 1639 1
1601 1602 1
1601 1634 1
1601 1635 1
1601 1638 1
1601 1875 1
1601 1878 1
1601 1879 1
1601 1914 1
1602 1603 1
1602 1605 1
1602 1843 1
1602 1878 1
1602 1879 1
1602 1882 1
1603 1604 1
1603 1605 1
1603 1606 1
1604 1605 1
1604 1606 1
1604 1639 1
1604 1642 1
1605 1606 1
1605 1638 1
1605 1639 1
1605 1642 1
1605 1879 1
1605 1882 1
1605 1883 1
1605 1918 1
1606 1847 1
1606 1882 1
1606 1883 1
1607 1608 1
1607 1609 1
1607 1610 1
1608 1609 1
1608 1610 1
1608 1611 1
1608 1613 1
1608 1643 1
1608 1646 1
1608 1647 1
1609 1610 1
1609 1643 1
1609 1646 1
1609 1886 1
1609 1887 1
1609 1922 1
1610 1611 1
1610 1613 1
1610 1851 1
1610 1886 1
1610 1887 1
1610 1890 1
1611 1612 1
1611 1613 1
1611 1614 1
1612 1613 1
1612 1614 1
1612 1615 1
1612 1617 1
1612 1647 1
1612 1650 1
1612 1651 1
1613 1614 1
1613 1646 1
1613 1647 1
1613 1650 1
1613 1887 1
1613 1890 1
1613 1891 1
1613 1926 1
1614 1615 1
1614 1617 1
1614 1855 1
1614 1890 1
1614 1891 1
1614 1894 1
1615 1616 1
1615 1617 1
1615 1618 1
1616 1617 1
1616 1618 1
1616 1619 1
1616 1621 1
1616 1651 1
1616 1654 1
1616 1655 1
1617 1618 1
1617 1650 1
1617 1651 1
1617 1654 1
1617 1891 1
1617 1894 1
1617 1895 1
1617 1930 1
1618 1619 1
1618 1621 1
1618 1859 1
1618 1894 1
1618 1895 1
1618 1898 1
1619 1620 1
1619 1621 1
1619 1622 1
1620 1621 1
1620 1622 1
1620 1623 1
1620 1625 1
1620 1655 1
1620 1658 1
1620 1659 1
1621 1622 1
1621 1654 1
1621 1655 1
1621 1658 1
1621 1895 1
1621 1898 1
1621 1899 1
1621 1934 1
1622 1623 1
1622 1625 1
1622 1863 1
1622 1898 1
1622 1899 1
1622 1902 1
1623 1624 1
1623 1625 1
1623 1626 1
1624 1625 1
1624 1626 1
1624 1627 1
1624 1629 1
1624 1659 1
1624 1662 1
1624 1663 1
1625 1626 1
1625 1658 1
1625 1659 1
1625 1662 1
1625 1899 1
1625 1902 1
1625 1903 1
1625 1938 1
1626 1627 1
1626 1629 1
1626 1867 1
1626 1902 1
1626 1903 1
1626 1906 1
1627 1628 1
1627 1629 1
1627 1630 1
1628 1629 1
1628 1630 1
1628 1631 1
1628 1633 1
1628 1663 1
1628 1666 1
1628 1667 1
1629 1630 1
1629 1662 1
1629 1663 1
1629 1666 1
1629 1903 1
1629 1906 1
1629 1907 1
1629 1942 1
1630 1631 1
1630 1633 1
1630 1871 1
1630 1906 1
1630 1907 1
1630 1910 1
1631 1632 1
1631 1633 1
1631 1634 1
1632 1633 1
1632 1634 1
1632 1635 1
1632 1637 1
1632 1667 1
1632 1670 1
1632 1671 1
1633 1634 1
1633 1666 1
1633 1667 1
1633 1670 1
1633 1907 1
1633 1910 1
1633 1911 1
1633 1946 1
1634 1635 1
1634 1637 1
1634 1875 1
1634 1910 1
1634 1911 1
1634 1914 1
1635 1636 1
1635 1637 1
1635 1638 1
1636 1637 1
1636 1638 1
1636 1639 1
1636 1641 1
1636 1671 1
1636 1674 1
1636 1675 1
1637 1638 1
1637 1670 1
1637 1671 1
1637 1674 1
1637 1911 1
1637 1914 1
1637 1915 1
1637 1950 1
1638 1639 1
1638 1641 1
1638 1879 1
1638 1914 1
1638 1915 1
1638 1918 1
1639 1640 1
1639 1641 1
1639 1642 1
1640 1641 1
1640 1642 1
1640 1675 1
1640 1678 1
1641 1642 1
1641 1674 1
1641 1675 1
1641 1678 1
1641 1915 1
1641 1918 1
1641 1919 1
1641 1954 1
1642 1883 1
1642 1918 1
1642 1919 1
1643 1644 1
1643 1645 1
1643 1646 1
1644 1645 1
1644 1646 1
1644 1647 1
1644 1649 1
1644 1679 1
1644 1681 1
1644 1682 1
1645 1646 1
1645 1679 1
1645 1681 1
1645 1922 1
1645 1923 1
1645 1958 1
1646 1647 1
1646 1649 1
1646 1887 1
1646 1922 1
1646 1923 1
1646 1926 1
1647 1648 1
1647 1649 1
1647 1650 1
1648 1649 1
1648 1650 1
1648 1651 1
1648 1653 1
1648 1682 1
1648 1685 1
1648 1686 1
1649 1650 1
1649 1681 1
1649 1682 1
1649 1685 1
1649 1923 1
1649 1926 1
1649 1927 1
1649 1961 1
1650 1651 1
1650 1653 1
1650 1891 1
1650 1926 1
1650 1927 1
1650 1930 1
1651 1652 1
1651 1653 1
1651 1654 1
1652 1653 1
1652 1654 1
1652 1655 1
1652 1657 1
1652 1686 1
1652 1689 1
1652 1690 1
1653 1654 1
1653 1685 1
1653 1686 1
1653 1689 1
1653 1927 1
1653 1930 1
1653 1931 1
1653 1965 1
1654 1655 1
1654 1657 1
1654 1895 1
1654 1930 1
1654 1931 1
1654 1934 1
1655 1656 1
1655 1657 1
1655 1658 1
1656 1657 1
1656 1658 1
1656 1659 1
1656 1661 1
1656 1690 1
1656 1693 1
1656 1694 1
1657 1658 1
1657 1689 1
1657 1690 1
1657 1693 1
1657 1931 1
1657 1934 1
1657 1935 1
1657 1969 1
1658 1659 1
1658 1661 1
1658 1899 1
1658 1934 1
1658 1935 1
1658 1938 1
1659 1660 1
1659 1661 1
1659 1662 1
1660 1661 1
1660 1662 1
1660 1663 1
1660 1665 1
1660 1694 1
1660 1697 1
1660 1698 1
1661 1662 1
1661 1693 1
1661 1694 1
1661 1697 1
1661 1935 1
1661 1938 1
1661 1939 1
1661 1973 1
1662 1663 1
1662 1665 1
1662 1903 1
1662 1938 1
1662 1939 1
1662 1942 1
1663 1664 1
1663 1665 1
1663 1666 1
1664 1665 1
1664 1666 1
1664 1667 1
1664 1669 1
1664 1698 1
1664 1701 1
1664 1702 1
1665 1666 1
1665 1697 1
1665 1698 1
1665 1701 1
1665 1939 1
1665 1942 1
1665 1943 1
1665 1977 1
1666 1667 1
1666 1669 1
1666 1907 1
1666 1942 1
1666 1943 1
1666 1946 1
1667 1668 1
1667 1669 1
1667 1670 1
1668 1669 1
1668 1670 1
1668 1671 1
1668 1673 1
1668 1702 1
1668 1705 1
1668 1706 1
1669 1670 1
1669 1701 1
1669 1702 1
1669 1705 1
1669 1943 1
1669 1946 1
1669 1947 1
1669 1981 1
1670 1671 1
1670 1673 1
1670 1911 1
1670 1946 1
1670 1947 1
1670 1950 1
1671 1672 1
1671 1673 1
1671 1674 1
1672 1673 1
1672 1674 1
1672 1675 1
1672 1677 1
1672 1706 1
1672 1709 1
1672 1710 1
1673 1674 1
1673 1705 1
1673 1706 1
1673 1709 1
1673 1947 1
1673 1950 1
1673 1951 1
1673 1985 1
1674 1675 1
1674 1677 1
1674 1915 1
1674 1950 1
1674 1951 1
1674 1954 1
1675 1676 1
1675 1677 1
1675 1678 1
1676 1677 1
1676 1678 1
1676 1710 1
1676 1713 1
1677 1678 1
1677 1709 1
1677 1710 1
1677 1713 1
1677 1951 1
1677 1954 1
1677 1955 1
1677 1989 1
1678 1919 1
1678 1954 1
1678 1955 1
1679 1680 1
1679 1681 1
1680 1681 1
1680 1682 1
1680 1684 1
1680 1714 1
1680 1715 1
1681 1682 1
1681 1684 1
1681 1923 1
1681 1958 1
1681 1959 1
1681 1961 1
1682 1683 1
1682 1684 1
1682 1685 1
1683 1684 1
1683 1685 1
1683 1686 1
1683 1688 1
1683 1715 1
1683 1718 1
1683 1719 1
1684 1685 1
1684 1714 1
1684 1715 1
1684 1718 1
1684 1959 1
1684 1961 1
1684 1962 1
1684 1994 1
1685 1686 1
1685 1688 1
1685 1927 1
1685 1961 1
1685 1962 1
1685 1965 1
1686 1687 1
1686 1688 1
1686 1689 1
1687 1688 1
1687 1689 1
1687 1690 1
1687 1692 1
1687 1719 1
1687 1722 1
1687 1723 1
1688 1689 1
1688 1718 1
1688 1719 1
1688 1722 1
1688 1962 1
1688 1965 1
1688 1966 1
1688 1998 1
1689 1690 1
1689 1692 1
1689 1931 1
1689 1965 1
1689 1966 1
1689 1969 1
1690 1691 1
1690 1692 1
1690 1693 1
1691 1692 1
1691 1693 1
1691 1694 1
1691 1696 1
1691 1723 1
1691 1726 1
1691 1727 1
1692 1693 1
1692 1722 1
1692 1723 1
1692 1726 1
1692 1966 1
1692 1969 1
1692 1970 1
1692 2002 1
1693 1694 1
1693 1696 1
1693 1935 1
1693 1969 1
1693 1970 1
1693 1973 1
1694 1695 1
1694 1696 1
1694 1697 1
1695 1696 1
1695 1697 1
1695 1698 1
1695 1700 1
1695 1727 1
1695 1730 1
1695 1731 1
1696 1697 1
1696 1726 1
1696 1727 1
1696 1730 1
1696 1970 1
1696 1973 1
1696 1974 1
1696 2006 1
1697 1698 1
1697 1700 1
1697 1939 1
1697 1973 1
1697 1974 1
1697 1977 1
1698 1699 1
1698 1700 1
1698 1701 1
1699 1700 1
1699 1701 1
1699 1702 1
1699 1704 1
1699 1731 1
1699 1734 1
1699 1735 1
1700 1701 1
1700 1730 1
1700 1731 1
1700 1734 1
1700 1974 1
1700 1977 1
1700 1978 1
1700 2010 1
1701 1702 1
1701 1704 1
1701 1943 1
1701 1977 1
1701 1978 1
1701 1981 1
1702 1703 1
1702 1704 1
1702 1705 1
1703 1704 1
1703 1705 1
1703 1706 1
1703 1708 1
1703 1735 1
1703 1738 1
1703 1739 1
1704 1705 1
1704 1734 1
1704 1735 1
1704 1738 1
1704 1978 1
1704 1981 1
1704 1982 1
1704 2014 1
1705 1706 1
1705 1708 1
1705 1947 1
1705 1981 1
1705 1982 1
1705 1985 1
1706 1707 1
1706 1708 1
1706 1709 1
1707 1708 1
1707 1709 1
1707 1710 1
1707 1712 1
1707 1739 1
1707 1742 1
1707 1743 1
1708 1709 1
1708 1738 1
1708 1739 1
1708 1742 1
1708 1982 1
1708 1985 1
1708 1986 1
1708 2018 1
1709 1710 1
1709 1712 1
1709 1951 1
1709 1985 1
1709 1986 1
1709 1989 1
1710 1711 1
1710 1712 1
1710 1713 1
1711 1712 1
1711 1713 1
1711 1743 1
1711 1745 1
1712 1713 1
1712 1742 1
1712 1743 1
1712 1745 1
1712 1986 1
1712 1989 1
1712 1990 1
1712 2022 1
1713 1955 1
1713 1989 1
1713 1990 1
1714 1715 1
1714 1717 1
1714 1959 1
1714 1994 1
1715 1716 1
1715 1717 1
1715 1718 1
1716 1717 1
1716 1718 1
1716 1719 1
1716 1721 1
1716 1746 1
1716 1747 1
1717 1718 1
1717 1746 1
1717 1994 1
1717 1995 1
1718 1719 1
1718 1721 1
1718 1962 1
1718 1994 1
1718 1995 1
1718 1998 1
1719 1720 1
1719 1721 1
1719 1722 1
1720 1721 1
1720 1722 1
1720 1723 1
1720 1725 1
1720 1747 1
1720 1750 1
1720 1751 1
1721 1722 1
1721 1746 1
1721 1747 1
1721 1750 1
1721 1995 1
1721 1998 1
1721 1999 1
1721 2026 1
1722 1723 1
1722 1725 1
1722 1966 1
1722 1998 1
1722 1999 1
1722 2002 1
1723 1724 1
1723 1725 1
1723 1726 1
1724 1725 1
1724 1726 1
1724 1727 1
1724 1729 1
1724 1751 1
1724 1754 1
1724 1755 1
1725 1726 1
1725 1750 1
1725 1751 1
1725 1754 1
1725 1999 1
1725 2002 1
1725 2003 1
1725 2030 1
1726 1727 1
1726 1729 1
1726 1970 1
1726 2002 1
1726 2003 1
1726 2006 1
1727 1728 1
1727 1729 1
1727 1730 1
1728 1729 1
1728 1730 1
1728 1731 1
1728 1733 1
1728 1755 1
1728 1758 1
1728 1759 1
1729 1730 1
1729 1754 1
1729 1755 1
1729 1758 1
1729 2003 1
1729 2006 1
1729 2007 1
1729 2034 1
1730 1731 1
1730 1733 1
1730 1974 1
1730 2006 1
1730 2007 1
1730 2010 1
1731 1732 1
1731 1733 1
1731 1734 1
1732 1733 1
1732 1734 1
1732 1735 1
1732 1737 1
1732 1759 1
1732 1762 1
1732 1763 1
1733 1734 1
1733 1758 1
1733 1759 1
1733 1762 1
1733 2007 1
1733 2010 1
1733 2011 1
1733 2038 1
1734 1735 1
1734 1737 1
1734 1978 1
1734 2010 1
1734 2011 1
1734 2014 1
1735 1736 1
1735 1737 1
1735 1738 1
1736 1737 1
1736 1738 1
1736 1739 1
1736 1741 1
1736 1763 1
1736 1766 1
1736 1767 1
1737 1738 1
1737 1762 1
1737 1763 1
1737 1766 1
1737 2011 1
1737 2014 1
1737 2015 1
1737 2042 1
1738 1739 1
1738 1741 1
1738 1982 1
1738 2014 1
1738 2015 1
1738 2018 1
1739 1740 1
1739 1741 1
1739 1742 1
1740 1741 1
1740 1742 1
1740 1743 1
1740 1744 1
1740 1767 1
1740 1769 1
1741 1742 1
1741 1766 1
1741 1767 1
1741 1769 1
1741 2015 1
1741 2018 1
1741 2019 1
1741 2046 1
1742 1743 1
1742 1744 1
1742 1986 1
1742 2018 1
1742 2019 1
1742 2022 1
1743 1744 1
1743 1745 1
1744 1745 1
1744 1769 1
1744 2019 1
1744 2022 1
1745 1990 1
1745 2022 1
1746 1747 1
1746 1749 1
1746 1995 1
1746 2026 1
1747 1748 1
1747 1749 1
1747 1750 1
1748 1749 1
1748 1750 1
1748 1751 1
1748 1753 1
1749 1750 1
1749 2026 1
1749 2027 1
1750 1751 1
1750 1753 1
1750 1999 1
1750 2026 1
1750 2027 1
1750 2030 1
1751 1752 1
1751 1753 1
1751 1754 1
1752 1753 1
1752 1754 1
1752 1755 1
1752 1757 1
1753 1754 1
1753 2027 1
1753 2030 1
1753 2031 1
1754 1755 1
1754 1757 1
1754 2003 1
1754 2030 1
1754 2031 1
1754 2034 1
1755 1756 1
1755 1757 1
1755 1758 1
1756 1757 1
1756 1758 1
1756 1759 1
1756 1761 1
1757 1758 1
1757 2031 1
1757 2034 1
1757 2035 1
1758 1759 1
1758 1761 1
1758 2007 1
1758 2034 1
1758 2035 1
1758 2038 1
1759 1760 1
1759 1761 1
1759 1762 1
1760 1761 1
1760 1762 1
1760 1763 1
1760 1765 1
1761 1762 1
1761 2035 1
1761 2038 1
1761 2039 1
1762 1763 1
1762 1765 1
1762 2011 1
1762 2038 1
1762 2039 1
1762 2042 1
1763 1764 1
1763 1765 1
1763 1766 1
1764 1765 1
1764 1766 1
1764 1767 1
1764 1768 1
1765 1766 1
1765 2039 1
1765 2042 1
1765 2043 1
1766 1767 1
1766 1768 1
1766 2015 1
1766 2042 1
1766 2043 1
1766 2046 1
1767 1768 1
1767 1769 1
1768 1769 1
1768 2043 1
1768 2046 1
1769 2019 1
1769 2046 1
1770 1771 1
1770 1772 1
1770 1774 1
1770 1791 1
1770 1794 1
1770 1795 1
1771 1790 1
1771 1791 1
1771 1794 1
1771 2049 1
1771 2061 1
1772 1773 1
1772 1774 1
1772 1775 1
1773 1774 1
1773 1775 1
1773 1776 1
1773 1778 1
1773 1795 1
1773 1798 1
1773 1799 1
1774 1775 1
1774 1794 1
1774 1795 1
1774 1798 1
1774 2049 1
1774 2050 1
1774 2065 1
1775 1776 1
1775 1778 1
1775 2050 1
1775 2052 1
1776 1777 1
1776 1778 1
1776 1779 1
1777 1778 1
1777 1779 1
1777 1780 1
1777 1782 1
1777 1799 1
1777 1802 1
1777 1803 1
1778 1779 1
1778 1798 1
1778 1799 1
1778 1802 1
1778 2050 1
1778 2052 1
1778 2053 1
1778 2069 1
1779 1780 1
1779 1782 1
1779 2052 1
1779 2053 1
1779 2055 1
1780 1781 1
1780 1782 1
1780 1783 1
1781 1782 1
1781 1783 1
1781 1784 1
1781 1786 1
1781 1803 1
1781 1806 1
1781 1807 1
1782 1783 1
1782 1802 1
1782 1803 1
1782 1806 1
1782 2053 1
1782 2055 1
1782 2056 1
1782 2073 1
1783 1784 1
1783 1786 1
1783 2055 1
1783 2056 1
1784 1785 1
1784 1786 1
1785 1786 1
1785 1787 1
1785 1807 1
1785 1810 1
1785 1811 1
1786 1806 1
1786 1807 1
1786 1810 1
1786 2056 1
1786 2058 1
1786 2077 1
1787 1810 1
1787 1811 1
1787 1814 1
1787 2058 1
1787 2081 1
1788 1789 1
1788 1790 1
1788 1791 1
1788 1793 1
1788 1818 1
1788 1821 1
1788 1822 1
1789 1790 1
1789 1817 1
1789 1818 1
1789 1821 1
1789 2060 1
1789 2085 1
1790 1791 1
1790 1793 1
1790 2060 1
1790 2061 1
1791 1792 1
1791 1793 1
1791 1794 1
1792 1793 1
1792 1794 1
1792 1795 1
1792 1797 1
1792 1822 1
1792 1825 1
1792 1826 1
1793 1794 1
1793 1821 1
1793 1822 1
1793 1825 1
1793 2060 1
1793 2061 1
1793 2062 1
1793 2089 1
1794 1795 1
1794 1797 1
1794 2049 1
1794 2061 1
1794 2062 1
1794 2065 1
1795 1796 1
1795 1797 1
1795 1798 1
1796 1797 1
1796 1798 1
1796 1799 1
1796 1801 1
1796 1826 1
1796 1829 1
1796 1830 1
1797 1798 1
1797 1825 1
1797 1826 1
1797 1829 1
1797 2062 1
1797 2065 1
1797 2066 1
1797 2093 1
1798 1799 1
1798 1801 1
1798 2050 1
1798 2065 1
1798 2066 1
1798 2069 1
1799 1800 1
1799 1801 1
1799 1802 1
1800 1801 1
1800 1802 1
1800 1803 1
1800 1805 1
1800 1830 1
1800 1833 1
1800 1834 1
1801 1802 1
1801 1829 1
1801 1830 1
1801 1833 1
1801 2066 1
1801 2069 1
1801 2070 1
1801 2097 1
1802 1803 1
1802 1805 1
1802 2053 1
1802 2069 1
1802 2070 1
1802 2073 1
1803 1804 1
1803 1805 1
1803 1806 1
1804 1805 1
1804 1806 1
1804 1807 1
1804 1809 1
1804 1834 1
1804 1837 1
1804 1838 1
1805 1806 1
1805 1833 1
1805 1834 1
1805 1837 1
1805 2070 1
1805 2073 1
1805 2074 1
1805 2101 1
1806 1807 1
1806 1809 1
1806 2056 1
1806 2073 1
1806 2074 1
1806 2077 1
1807 1808 1
1807 1809 1
1807 1810 1
1808 1809 1
1808 1810 1
1808 1811 1
1808 1813 1
1808 1838 1
1808 1841 1
1808 1842 1
1809 1810 1
1809 1837 1
1809 1838 1
1809 1841 1
1809 2074 1
1809 2077 1
1809 2078 1
1809 2105 1
1810 1811 1
1810 1813 1
1810 2058 1
1810 2077 1
1810 2078 1
1810 2081 1
1811 1812 1
1811 1813 1
1811 1814 1
1812 1813 1
1812 1814 1
1812 1815 1
1812 1842 1
1812 1845 1
1812 1846 1
1813 1814 1
1813 1841 1
1813 1842 1
1813 1845 1
1813 2078 1
1813 2081 1
1813 2082 1
1813 2109 1
1814 1815 1
1814 2081 1
1814 2082 1
1815 1845 1
1815 1846 1
1815 1849 1
1815 2082 1
1815 2113 1
1816 1817 1
1816 1818 1
1816 1820 1
1816 1850 1
1816 1853 1
1816 1854 1
1817 1818 1
1817 1820 1
1817 2084 1
1817 2085 1
1818 1819 1
1818 1820 1
1818 1821 1
1819 1820 1
1819 1821 1
1819 1822 1
1819 1824 1
1819 1854 1
1819 1857 1
1819 1858 1
1820 1821 1
1820 1853 1
1820 1854 1
1820 1857 1
1820 2084 1
1820 2085 1
1820 2086 1
1820 2118 1
1821 1822 1
1821 1824 1
1821 2060 1
1821 2085 1
1821 2086 1
1821 2089 1
1822 1823 1
1822 1824 1
1822 1825 1
1823 1824 1
1823 1825 1
1823 1826 1
1823 1828 1
1823 1858 1
1823 1861 1
1823 1862 1
1824 1825 1
1824 1857 1
1824 1858 1
1824 1861 1
1824 2086 1
1824 2089 1
1824 2090 1
1824 2122 1
1825 1826 1
1825 1828 1
1825 2062 1
1825 2089 1
1825 2090 1
1825 2093 1
1826 1827 1
1826 1828 1
1826 1829 1
1827 1828 1
1827 1829 1
1827 1830 1
1827 1832 1
1827 1862 1
1827 1865 1
1827 1866 1
1828 1829 1
1828 1861 1
1828 1862 1
1828 1865 1
1828 2090 1
1828 2093 1
1828 2094 1
1828 2126 1
1829 1830 1
1829 1832 1
1829 2066 1
1829 2093 1
1829 2094 1
1829 2097 1
1830 1831 1
1830 1832 1
1830 1833 1
1831 1832 1
1831 1833 1
1831 1834 1
1831 1836 1
1831 1866 1
1831 1869 1
1831 1870 1
1832 1833 1
1832 1865 1
1832 1866 1
1832 1869 1
1832 2094 1
1832 2097 1
1832 2098 1
1832 2130 1
1833 1834 1
1833 1836 1
1833 2070 1
1833 2097 1
1833 2098 1
1833 2101 1
1834 1835 1
1834 1836 1
1834 1837 1
1835 1836 1
1835 1837 1
1835 1838 1
1835 1840 1
1835 1870 1
1835 1873 1
1835 1874 1
1836 1837 1
1836 1869 1
1836 1870 1
1836 1873 1
1836 2098 1
1836 2101 1
1836 2102 1
1836 2134 1
1837 1838 1
1837 1840 1
1837 2074 1
1837 2101 1
1837 2102 1
1837 2105 1
1838 1839 1
1838 1840 1
1838 1841 1
1839 1840 1
1839 1841 1
1839 1842 1
1839 1844 1
1839 1874 1
1839 1877 1
1839 1878 1
1840 1841 1
1840 1873 1
1840 1874 1
1840 1877 1
1840 2102 1
1840 2105 1
1840 2106 1
1840 2138 1
1841 1842 1
1841 1844 1
1841 2078 1
1841 2105 1
1841 2106 1
1841 2109 1
1842 1843 1
1842 1844 1
1842 1845 1
1843 1844 1
1843 1845 1
1843 1846 1
1843 1848 1
1843 1878 1
1843 1881 1
1843 1882 1
1844 1845 1
1844 1877 1
1844 1878 1
1844 1881 1
1844 2106 1
1844 2109 1
1844 2110 1
1844 2142 1
1845 1846 1
1845 1848 1
1845 2082 1
1845 2109 1
1845 2110 1
1845 2113 1
1846 1847 1
1846 1848 1
1846 1849 1
1847 1848 1
1847 1849 1
1847 1882 1
1847 1885 1
1848 1849 1
1848 1881 1
1848 1882 1
1848 1885 1
1848 2110 1
1848 2113 1
1848 2114 1
1848 2146 1
1849 2113 1
1849 2114 1
1850 1851 1
1850 1852 1
1850 1853 1
1851 1852 1
1851 1853 1
1851 1854 1
1851 1856 1
1851 1886 1
1851 1889 1
1851 1890 1
1852 1853 1
1852 1886 1
1852 1889 1
1852 2116 1
1852 2150 1
1853 1854 1
1853 1856 1
1853 2084 1
1853 2116 1
1853 2118 1
1854 1855 1
1854 1856 1
1854 1857 1
1855 1856 1
1855 1857 1
1855 1858 1
1855 1860 1
1855 1890 1
1855 1893 1
1855 1894 1
1856 1857 1
1856 1889 1
1856 1890 1
1856 1893 1
1856 2116 1
1856 2118 1
1856 2119 1
1856 2153 1
1857 1858 1
1857 1860 1
1857 2086 1
1857 2118 1
1857 2119 1
1857 2122 1
1858 1859 1
1858 1860 1
1858 1861 1
1859 1860 1
1859 1861 1
1859 1862 1
1859 1864 1
1859 1894 1
1859 1897 1
1859 1898 1
1860 1861 1
1860 1893 1
1860 1894 1
1860 1897 1
1860 2119 1
1860 2122 1
1860 2123 1
1860 2157 1
1861 1862 1
1861 1864 1
1861 2090 1
1861 2122 1
1861 2123 1
1861 2126 1
1862 1863 1
1862 1864 1
1862 1865 1
1863 1864 1
1863 1865 1
1863 1866 1
1863 1868 1
1863 1898 1
1863 1901 1
1863 1902 1
1864 1865 1
1864 1897 1
1864 1898 1
1864 1901 1
1864 2123 1
1864 2126 1
1864 2127 1
1864 2161 1
1865 1866 1
1865 1868 1
1865 2094 1
1865 2126 1
1865 2127 1
1865 2130 1
1866 1867 1
1866 1868 1
1866 1869 1
1867 1868 1
1867 1869 1
1867 1870 1
1867 1872 1
1867 1902 1
1867 1905 1
1867 1906 1
1868 1869 1
1868 1901 1
1868 1902 1
1868 1905 1
1868 2127 1
1868 2130 1
1868 2131 1
1868 2165 1
1869 1870 1
1869 1872 1
1869 2098 1
1869 2130 1
1869 2131 1
1869 2134 1
1870 1871 1
1870 1872 1
1870 1873 1
1871 1872 1
1871 1873 1
1871 1874 1
1871 1876 1
1871 1906 1
1871 1909 1
1871 1910 1
1872 1873 1
1872 1905 1
1872 1906 1
1872 1909 1
1872 2131 1
1872 2134 1
1872 2135 1
1872 2169 1
1873 1874 1
1873 1876 1
1873 2102 1
1873 2134 1
1873 2135 1
1873 2138 1
1874 1875 1
1874 1876 1
1874 1877 1
1875 1876 1
1875 1877 1
1875 1878 1
1875 1880 1
1875 1910 1
1875 1913 1
1875 1914 1
1876 1877 1
1876 1909 1
1876 1910 1
1876 1913 1
1876 2135 1
1876 2138 1
1876 2139 1
1876 2173 1
1877 1878 1
1877 1880 1
1877 2106 1
1877 2138 1
1877 2139 1
1877 2142 1
1878 1879 1
1878 1880 1
1878 1881 1
1879 1880 1
1879 1881 1
1879 1882 1
1879 1884 1
1879 1914 1
1879 1917 1
1879 1918 1
1880 1881 1
1880 1913 1
1880 1914 1
1880 1917 1
1880 2139 1
1880 2142 1
1880 2143 1
1880 2177 1
1881 1882 1
1881 1884 1
1881 2110 1
1881 2142 1
1881 2143 1
1881 2146 1
1882 1883 1
1882 1884 1
1882 1885 1
1883 1884 1
1883 1885 1
1883 1918 1
1883 1921 1
1884 1885 1
1884 1917 1
1884 1918 1
1884 1921 1
1884 2143 1
1884 2146 1
1884 2147 1
1884 2181 1
1885 2114 1
1885 2146 1
1885 2147 1
1886 1887 1
1886 1888 1
1886 1889 1
1887 1888 1
1887 1889 1
1887 1890 1
1887 1892 1
1887 1922 1
1887 1925 1
1887 1926 1
1888 1889 1
1888 1922 1
1888 1925 1
1888 2150 1
1888 2151 1
1888 2185 1
1889 1890 1
1889 1892 1
1889 2116 1
1889 2150 1
1889 2151 1
1889 2153 1
1890 1891 1
1890 1892 1
1890 1893 1
1891 1892 1
1891 1893 1
1891 1894 1
1891 1896 1
1891 1926 1
1891 1929 1
1891 1930 1
1892 1893 1
1892 1925 1
1892 1926 1
1892 1929 1
1892 2151 1
1892 2153 1
1892 2154 1
1892 2188 1
1893 1894 1
1893 1896 1
1893 2119 1
1893 2153 1
1893 2154 1
1893 2157 1
1894 1895 1
1894 1896 1
1894 1897 1
1895 1896 1
1895 1897 1
1895 1898 1
1895 1900 1
1895 1930 1
1895 1933 1
1895 1934 1
1896 1897 1
1896 1929 1
1896 1930 1
1896 1933 1
1896 2154 1
1896 2157 1
1896 2158 1
1896 2192 1
1897 1898 1
1897 1900 1
1897 2123 1
1897 2157 1
1897 2158 1
1897 2161 1
1898 1899 1
1898 1900 1
1898 1901 1
1899 1900 1
1899 1901 1
1899 1902 1
1899 1904 1
1899 1934 1
1899 1937 1
1899 1938 1
1900 1901 1
1900 1933 1
1900 1934 1
1900 1937 1
1900 2158 1
1900 2161 1
1900 2162 1
1900 2196 1
1901 1902 1
1901 1904 1
1901 2127 1
1901 2161 1
1901 2162 1
1901 2165 1
1902 1903 1
1902 1904 1
1902 1905 1
1903 1904 1
1903 1905 1
1903 1906 1
1903 1908 1
1903 1938 1
1903 1941 1
1903 1942 1
1904 1905 1
1904 1937 1
1904 1938 1
1904 1941 1
1904 2162 1
1904 2165 1
1904 2166 1
1904 2200 1
1905 1906 1
1905 1908 1
1905 2131 1
1905 2165 1
1905 2166 1
1905 2169 1
1906 1907 1
1906 1908 1
1906 1909 1
1907 1908 1
1907 1909 1
1907 1910 1
1907 1912 1
1907 1942 1
1907 1945 1
1907 1946 1
1908 1909 1
1908 1941 1
1908 1942 1
1908 1945 1
1908 2166 1
1908 2169 1
1908 2170 1
1908 2204 1
1909 1910 1
1909 1912 1
1909 2135 1
1909 2169 1
1909 2170 1
1909 2173 1
1910 1911 1
1910 1912 1
1910 1913 1
1911 1912 1
1911 1913 1
1911 1914 1
1911 1916 1
1911 1946 1
1911 1949 1
1911 1950 1
1912 1913 1
1912 1945 1
1912 1946 1
1912 1949 1
1912 2170 1
1912 2173 1
1912 2174 1
1912 2208 1
1913 1914 1
1913 1916 1
1913 2139 1
1913 2173 1
1913 2174 1
1913 2177 1
1914 1915 1
1914 1916 1
1914 1917 1
1915 1916 1
1915 1917 1
1915 1918 1
1915 1920 1
1915 1950 1
1915 1953 1
1915 1954 1
1916 1917 1
1916 1949 1
1916 1950 1
1916 1953 1
1916 2174 1
1916 2177 1
1916 2178 1
1916 2212 1
1917 1918 1
1917 1920 1
1917 2143 1
1917 2177 1
1917 2178 1
1917 2181 1
1918 1919 1
1918 1920 1
1918 1921 1
1919 1920 1
1919 1921 1
1919 1954 1
1919 1957 1
1920 1921 1
1920 1953 1
1920 1954 1
1920 1957 1
1920 2178 1
1920 2181 1
1920 2182 1
1920 2216 1
1921 2147 1
1921 2181 1
1921 2182 1
1922 1923 1
1922 1924 1
1922 1925 1
1923 1924 1
1923 1925 1
1923 1926 1
1923 1928 1
1923 1958 1
1923 1960 1
1923 1961 1
1924 1925 1
1924 1958 1
1924 1960 1
1924 2185 1
1924 2186 1
1925 1926 1
1925 1928 1
1925 2151 1
1925 2185 1
1925 2186 1
1925 2188 1
1926 1927 1
1926 1928 1
1926 1929 1
1927 1928 1
1927 1929 1
1927 1930 1
1927 1932 1
1927 1961 1
1927 1964 1
1927 1965 1
1928 1929 1
1928 1960 1
1928 1961 1
1928 1964 1
1928 2186 1
1928 2188 1
1928 2189 1
1928 2222 1
1929 1930 1
1929 1932 1
1929 2154 1
1929 2188 1
1929 2189 1
1929 2192 1
1930 1931 1
1930 1932 1
1930 1933 1
1931 1932 1
1931 1933 1
1931 1934 1
1931 1936 1
1931 1965 1
1931 1968 1
1931 1969 1
1932 1933 1
1932 1964 1
1932 1965 1
1932 1968 1
1932 2189 1
1932 2192 1
1932 2193 1
1932 2226 1
1933 1934 1
1933 1936 1
1933 2158 1
1933 2192 1
1933 2193 1
1933 2196 1
1934 1935 1
1934 1936 1
1934 1937 1
1935 1936 1
1935 1937 1
1935 1938 1
1935 1940 1
1935 1969 1
1935 1972 1
1935 1973 1
1936 1937 1
1936 1968 1
1936 1969 1
1936 1972 1
1936 2193 1
1936 2196 1
1936 2197 1
1936 2230 1
1937 1938 1
1937 1940 1
1937 2162 1
1937 2196 1
1937 2197 1
1937 2200 1
1938 1939 1
1938 1940 1
1938 1941 1
1939 1940 1
1939 1941 1
1939 1942 1
1939 1944 1
1939 1973 1
1939 1976 1
1939 1977 1
1940 1941 1
1940 1972 1
1940 1973 1
1940 1976 1
1940 2197 1
1940 2200 1
1940 2201 1
1940 2234 1
1941 1942 1
1941 1944 1
1941 2166 1
1941 2200 1
1941 2201 1
1941 2204 1
1942 1943 1
1942 1944 1
1942 1945 1
1943 1944 1
1943 1945 1
1943 1946 1
1943 1948 1
1943 1977 1
1943 1980 1
1943 1981 1
1944 1945 1
1944 1976 1
1944 1977 1
1944 1980 1
1944 2201 1
1944 2204 1
1944 2205 1
1944 2238 1
1945 1946 1
1945 1948 1
1945 2170 1
1945 2204 1
1945 2205 1
1945 2208 1
1946 1947 1
1946 1948 1
1946 1949 1
1947 1948 1
1947 1949 1
1947 1950 1
1947 1952 1
1947 1981 1
1947 1984 1
1947 1985 1
1948 1949 1
1948 1980 1
1948 1981 1
1948 1984 1
1948 2205 1
1948 2208 1
1948 2209 1
1948 2242 1
1949 1950 1
1949 1952 1
1949 2174 1
1949 2208 1
1949 2209 1
1949 2212 1
1950 1951 1
1950 1952 1
1950 1953 1
1951 1952 1
1951 1953 1
1951 1954 1
1951 1956 1
1951 1985 1
1951 1988 1
1951 1989 1
1952 1953 1
1952 1984 1
1952 1985 1
1952 1988 1
1952 2209 1
1952 2212 1
1952 2213 1
1952 2246 1
1953 1954 1
1953 1956 1
1953 2178 1
1953 2212 1
1953 2213 1
1953 2216 1
1954 1955 1
1954 1956 1
1954 1957 1
1955 1956 1
1955 1957 1
1955 1989 1
1955 1992 1
1956 1957 1
1956 1988 1
1956 1989 1
1956 1992 1
1956 2213 1
1956 2216 1
1956 2217 1
1956 2250 1
1957 2182 1
1957 2216 1
1957 2217 1
1958 1959 1
1958 1960 1
1959 1960 1
1959 1961 1
1959 1963 1
1959 1993 1
1959 1994 1
1960 1961 1
1960 1963 1
1960 2186 1
1960 2220 1
1960 2222 1
1961 1962 1
1961 1963 1
1961 1964 1
1962 1963 1
1962 1964 1
1962 1965 1
1962 1967 1
1962 1994 1
1962 1997 1
1962 1998 1
1963 1964 1
1963 1993 1
1963 1994 1
1963 1997 1
1963 2220 1
1963 2222 1
1963 2223 1
1963 2254 1
1964 1965 1
1964 1967 1
1964 2189 1
1964 2222 1
1964 2223 1
1964 2226 1
1965 1966 1
1965 1967 1
1965 1968 1
1966 1967 1
1966 1968 1
1966 1969 1
1966 1971 1
1966 1998 1
1966 2001 1
1966 2002 1
1967 1968 1
1967 1997 1
1967 1998 1
1967 2001 1
1967 2223 1
1967 2226 1
1967 2227 1
1967 2257 1
1968 1969 1
1968 1971 1
1968 2193 1
1968 2226 1
1968 2227 1
1968 2230 1
1969 1970 1
1969 1971 1
1969 1972 1
1970 1971 1
1970 1972 1
1970 1973 1
1970 1975 1
1970 2002 1
1970 2005 1
1970 2006 1
1971 1972 1
1971 2001 1
1971 2002 1
1971 2005 1
1971 2227 1
1971 2230 1
1971 2231 1
1971 2261 1
1972 1973 1
1972 1975 1
1972 2197 1
1972 2230 1
1972 2231 1
1972 2234 1
1973 1974 1
1973 1975 1
1973 1976 1
1974 1975 1
1974 1976 1
1974 1977 1
1974 1979 1
1974 2006 1
1974 2009 1
1974 2010 1
1975 1976 1
1975 2005 1
1975 2006 1
1975 2009 1
1975 2231 1
1975 2234 1
1975 2235 1
1975 2265 1
1976 1977 1
1976 1979 1
1976 2201 1
1976 2234 1
1976 2235 1
1976 2238 1
1977 1978 1
1977 1979 1
1977 1980 1
1978 1979 1
1978 1980 1
1978 1981 1
1978 1983 1
1978 2010 1
1978 2013 1
1978 2014 1
1979 1980 1
1979 2009 1
1979 2010 1
1979 2013 1
1979 2235 1
1979 2238 1
1979 2239 1
1979 2269 1
1980 1981 1
1980 1983 1
1980 2205 1
1980 2238 1
1980 2239 1
1980 2242 1
1981 1982 1
1981 1983 1
1981 1984 1
1982 1983 1
1982 1984 1
1982 1985 1
1982 1987 1
1982 2014 1
1982 2017 1
1982 2018 1
1983 1984 1
1983 2013 1
1983 2014 1
1983 2017 1
1983 2239 1
1983 2242 1
1983 2243 1
1983 2273 1
1984 1985 1
1984 1987 1
1984 2209 1
1984 2242 1
1984 2243 1
1984 2246 1
1985 1986 1
1985 1987 1
1985 1988 1
1986 1987 1
1986 1988 1
1986 1989 1
1986 1991 1
1986 2018 1
1986 2021 1
1986 2022 1
1987 1988 1
1987 2017 1
1987 2018 1
1987 2021 1
1987 2243 1
1987 2246 1
1987 2247 1
1987 2277 1
1988 1989 1
1988 1991 1
1988 2213 1
1988 2246 1
1988 2247 1
1988 2250 1
1989 1990 1
1989 1991 1
1989 1992 1
1990 1991 1
1990 1992 1
1990 2022 1
1990 2024 1
1991 1992 1
1991 2021 1
1991 2022 1
1991 2024 1
1991 2247 1
1991 2250 1
1991 2251 1
1991 2281 1
1992 2217 1
1992 2250 1
1992 2251 1
1993 1994 1
1993 1996 1
1993 2220 1
1993 2254 1
1994 1995 1
1994 1996 1
1994 1997 1
1995 1996 1
1995 1997 1
1995 1998 1
1995 2000 1
1995 2025 1
1995 2026 1
1996 1997 1
1996 2025 1
1996 2254 1
1996 2255 1
1997 1998 1
1997 2000 1
1997 2223 1
1997 2254 1
1997 2255 1
1997 2257 1
1998 1999 1
1998 2000 1
1998 2001 1
1999 2000 1
1999 2001 1
1999 2002 1
1999 2004 1
1999 2026 1
1999 2029 1
1999 2030 1
2000 2001 1
2000 2025 1
2000 2026 1
2000 2029 1
2000 2255 1
2000 2257 1
2000 2258 1
2000 2282 1
2001 2002 1
2001 2004 1
2001 2227 1
2001 2257 1
2001 2258 1
2001 2261 1
2002 2003 1
2002 2004 1
2002 2005 1
2003 2004 1
2003 2005 1
2003 2006 1
2003 2008 1
2003 2030 1
2003 2033 1
2003 2034 1
2004 2005 1
2004 2029 1
2004 2030 1
2004 2033 1
2004 2258 1
2004 2261 1
2004 2262 1
2004 2285 1
2005 2006 1
2005 2008 1
2005 2231 1
2005 2261 1
2005 2262 1
2005 2265 1
2006 2007 1
2006 2008 1
2006 2009 1
2007 2008 1
2007 2009 1
2007 2010 1
2007 2012 1
2007 2034 1
2007 2037 1
2007 2038 1
2008 2009 1
2008 2033 1
2008 2034 1
2008 2037 1
2008 2262 1
2008 2265 1
2008 2266 1
2008 2289 1
2009 2010 1
2009 2012 1
2009 2235 1
2009 2265 1
2009 2266 1
2009 2269 1
2010 2011 1
2010 2012 1
2010 2013 1
2011 2012 1
2011 2013 1
2011 2014 1
2011 2016 1
2011 2038 1
2011 2041 1
2011 2042 1
2012 2013 1
2012 2037 1
2012 2038 1
2012 2041 1
2012 2266 1
2012 2269 1
2012 2270 1
2012 2293 1
2013 2014 1
2013 2016 1
2013 2239 1
2013 2269 1
2013 2270 1
2013 2273 1
2014 2015 1
2014 2016 1
2014 2017 1
2015 2016 1
2015 2017 1
2015 2018 1
2015 2020 1
2015 2042 1
2015 2045 1
2015 2046 1
2016 2017 1
2016 2041 1
2016 2042 1
2016 2045 1
2016 2270 1
2016 2273 1
2016 2274 1
2016 2297 1
2017 2018 1
2017 2020 1
2017 2243 1
2017 2273 1
2017 2274 1
2017 2277 1
2018 2019 1
2018 2020 1
2018 2021 1
2019 2020 1
2019 2021 1
2019 2022 1
2019 2023 1
2019 2046 1
2019 2048 1
2020 2021 1
2020 2045 1
2020 2046 1
2020 2048 1
2020 2274 1
2020 2277 1
2020 2278 1
2020 2301 1
2021 2022 1
2021 2023 1
2021 2247 1
2021 2277 1
2021 2278 1
2021 2281 1
2022 2023 1
2022 2024 1
2023 2024 1
2023 2048 1
2023 2278 1
2023 2281 1
2024 2251 1
2024 2281 1
2025 2026 1
2025 2028 1
2025 2255 1
2025 2282 1
2026 2027 1
2026 2028 1
2026 2029 1
2027 2028 1
2027 2029 1
2027 2030 1
2027 2032 1
2028 2029 1
2028 2282 1
2028 2283 1
2029 2030 1
2029 2032 1
2029 2258 1
2029 2282 1
2029 2283 1
2029 2285 1
2030 2031 1
2030 2032 1
2030 2033 1
2031 2032 1
2031 2033 1
2031 2034 1
2031 2036 1
2032 2033 1
2032 2283 1
2032 2285 1
2032 2286 1
2033 2034 1
2033 2036 1
2033 2262 1
2033 2285 1
2033 2286 1
2033 2289 1
2034 2035 1
2034 2036 1
2034 2037 1
2035 2036 1
2035 2037 1
2035 2038 1
2035 2040 1
2036 2037 1
2036 2286 1
2036 2289 1
2036 2290 1
2037 2038 1
2037 2040 1
2037 2266 1
2037 2289 1
2037 2290 1
2037 2293 1
2038 2039 1
2038 2040 1
2038 2041 1
2039 2040 1
2039 2041 1
2039 2042 1
2039 2044 1
2040 2041 1
2040 2290 1
2040 2293 1
2040 2294 1
2041 2042 1
2041 2044 1
2041 2270 1
2041 2293 1
2041 2294 1
2041 2297 1
2042 2043 1
2042 2044 1
2042 2045 1
2043 2044 1
2043 2045 1
2043 2046 1
2043 2047 1
2044 2045 1
2044 2294 1
2044 2297 1
2044 2298 1
2045 2046 1
2045 2047 1
2045 2274 1
2045 2297 1
2045 2298 1
2045 2301 1
2046 2047 1
2046 2048 1
2047 2048 1
2047 2298 1
2047 2301 1
2048 2278 1
2048 2301 1
2049 2051 1
2049 2061 1
2049 2064 1
2049 2065 1
2050 2051 1
2050 2052 1
2050 2054 1
2050 2065 1
2050 2068 1
2050 2069 1
2051 2064 1
2051 2065 1
2051 2068 1
2051 2302 1
2051 2306 1
2052 2053 1
2052 2054 1
2053 2054 1
2053 2055 1
2053 2057 1
2053 2069 1
2053 2072 1
2053 2073 1
2054 2068 1
2054 2069 1
2054 2072 1
2054 2302 1
2054 2303 1
2054 2310 1
2055 2056 1
2055 2057 1
2056 2057 1
2056 2059 1
2056 2073 1
2056 2076 1
2056 2077 1
2057 2072 1
2057 2073 1
2057 2076 1
2057 2303 1
2057 2304 1
2057 2314 1
2058 2059 1
2058 2077 1
2058 2080 1
2058 2081 1
2059 2076 1
2059 2077 1
2059 2080 1
2059 2304 1
2059 2318 1
2060 2061 1
2060 2063 1
2060 2085 1
2060 2088 1
2060 2089 1
2061 2062 1
2061 2063 1
2061 2064 1
2062 2063 1
2062 2064 1
2062 2065 1
2062 2067 1
2062 2089 1
2062 2092 1
2062 2093 1
2063 2064 1
2063 2088 1
2063 2089 1
2063 2092 1
2063 2305 1
2063 2322 1
2064 2065 1
2064 2067 1
2064 2305 1
2064 2306 1
2065 2066 1
2065 2067 1
2065 2068 1
2066 2067 1
2066 2068 1
2066 2069 1
2066 2071 1
2066 2093 1
2066 2096 1
2066 2097 1
2067 2068 1
2067 2092 1
2067 2093 1
2067 2096 1
2067 2305 1
2067 2306 1
2067 2307 1
2067 2326 1
2068 2069 1
2068 2071 1
2068 2302 1
2068 2306 1
2068 2307 1
2068 2310 1
2069 2070 1
2069 2071 1
2069 2072 1
2070 2071 1
2070 2072 1
2070 2073 1
2070 2075 1
2070 2097 1
2070 2100 1
2070 2101 1
2071 2072 1
2071 2096 1
2071 2097 1
2071 2100 1
2071 2307 1
2071 2310 1
2071 2311 1
2071 2330 1
2072 2073 1
2072 2075 1
2072 2303 1
2072 2310 1
2072 2311 1
2072 2314 1
2073 2074 1
2073 2075 1
2073 2076 1
2074 2075 1
2074 2076 1
2074 2077 1
2074 2079 1
2074 2101 1
2074 2104 1
2074 2105 1
2075 2076 1
2075 2100 1
2075 2101 1
2075 2104 1
2075 2311 1
2075 2314 1
2075 2315 1
2075 2334 1
2076 2077 1
2076 2079 1
2076 2304 1
2076 2314 1
2076 2315 1
2076 2318 1
2077 2078 1
2077 2079 1
2077 2080 1
2078 2079 1
2078 2080 1
2078 2081 1
2078 2083 1
2078 2105 1
2078 2108 1
2078 2109 1
2079 2080 1
2079 2104 1
2079 2105 1
2079 2108 1
2079 2315 1
2079 2318 1
2079 2319 1
2079 2338 1
2080 2081 1
2080 2083 1
2080 2318 1
2080 2319 1
2081 2082 1
2081 2083 1
2082 2083 1
2082 2109 1
2082 2112 1
2082 2113 1
2083 2108 1
2083 2109 1
2083 2112 1
2083 2319 1
2083 2342 1
2084 2085 1
2084 2087 1
2084 2117 1
2084 2118 1
2085 2086 1
2085 2087 1
2085 2088 1
2086 2087 1
2086 2088 1
2086 2089 1
2086 2091 1
2086 2118 1
2086 2121 1
2086 2122 1
2087 2088 1
2087 2117 1
2087 2118 1
2087 2121 1
2087 2321 1
2087 2346 1
2088 2089 1
2088 2091 1
2088 2321 1
2088 2322 1
2089 2090 1
2089 2091 1
2089 2092 1
2090 2091 1
2090 2092 1
2090 2093 1
2090 2095 1
2090 2122 1
2090 2125 1
2090 2126 1
2091 2092 1
2091 2121 1
2091 2122 1
2091 2125 1
2091 2321 1
2091 2322 1
2091 2323 1
2091 2350 1
2092 2093 1
2092 2095 1
2092 2305 1
2092 2322 1
2092 2323 1
2092 2326 1
2093 2094 1
2093 2095 1
2093 2096 1
2094 2095 1
2094 2096 1
2094 2097 1
2094 2099 1
2094 2126 1
2094 2129 1
2094 2130 1
2095 2096 1
2095 2125 1
2095 2126 1
2095 2129 1
2095 2323 1
2095 2326 1
2095 2327 1
2095 2354 1
2096 2097 1
2096 2099 1
2096 2307 1
2096 2326 1
2096 2327 1
2096 2330 1
2097 2098 1
2097 2099 1
2097 2100 1
2098 2099 1
2098 2100 1
2098 2101 1
2098 2103 1
2098 2130 1
2098 2133 1
2098 2134 1
2099 2100 1
2099 2129 1
2099 2130 1
2099 2133 1
2099 2327 1
2099 2330 1
2099 2331 1
2099 2358 1
2100 2101 1
2100 2103 1
2100 2311 1
2100 2330 1
2100 2331 1
2100 2334 1
2101 2102 1
2101 2103 1
2101 2104 1
2102 2103 1
2102 2104 1
2102 2105 1
2102 2107 1
2102 2134 1
2102 2137 1
2102 2138 1
2103 2104 1
2103 2133 1
2103 2134 1
2103 2137 1
2103 2331 1
2103 2334 1
2103 2335 1
2103 2362 1
2104 2105 1
2104 2107 1
2104 2315 1
2104 2334 1
2104 2335 1
2104 2338 1
2105 2106 1
2105 2107 1
2105 2108 1
2106 2107 1
2106 2108 1
2106 2109 1
2106 2111 1
2106 2138 1
2106 2141 1
2106 2142 1
2107 2108 1
2107 2137 1
2107 2138 1
2107 2141 1
2107 2335 1
2107 2338 1
2107 2339 1
2107 2366 1
2108 2109 1
2108 2111 1
2108 2319 1
2108 2338 1
2108 2339 1
2108 2342 1
2109 2110 1
2109 2111 1
2109 2112 1
2110 2111 1
2110 2112 1
2110 2113 1
2110 2115 1
2110 2142 1
2110 2145 1
2110 2146 1
2111 2112 1
2111 2141 1
2111 2142 1
2111 2145 1
2111 2339 1
2111 2342 1
2111 2343 1
2111 2370 1
2112 2113 1
2112 2115 1
2112 2342 1
2112 2343 1
2113 2114 1
2113 2115 1
2114 2115 1
2114 2146 1
2114 2149 1
2115 2145 1
2115 2146 1
2115 2149 1
2115 2343 1
2115 2374 1
2116 2117 1
2116 2118 1
2116 2120 1
2116 2150 1
2116 2152 1
2116 2153 1
2117 2118 1
2117 2120 1
2117 2345 1
2117 2346 1
2118 2119 1
2118 2120 1
2118 2121 1
2119 2120 1
2119 2121 1
2119 2122 1
2119 2124 1
2119 2153 1
2119 2156 1
2119 2157 1
2120 2121 1
2120 2152 1
2120 2153 1
2120 2156 1
2120 2345 1
2120 2346 1
2120 2347 1
2120 2378 1
2121 2122 1
2121 2124 1
2121 2321 1
2121 2346 1
2121 2347 1
2121 2350 1
2122 2123 1
2122 2124 1
2122 2125 1
2123 2124 1
2123 2125 1
2123 2126 1
2123 2128 1
2123 2157 1
2123 2160 1
2123 2161 1
2124 2125 1
2124 2156 1
2124 2157 1
2124 2160 1
2124 2347 1
2124 2350 1
2124 2351 1
2124 2382 1
2125 2126 1
2125 2128 1
2125 2323 1
2125 2350 1
2125 2351 1
2125 2354 1
2126 2127 1
2126 2128 1
2126 2129 1
2127 2128 1
2127 2129 1
2127 2130 1
2127 2132 1
2127 2161 1
2127 2164 1
2127 2165 1
2128 2129 1
2128 2160 1
2128 2161 1
2128 2164 1
2128 2351 1
2128 2354 1
2128 2355 1
2128 2386 1
2129 2130 1
2129 2132 1
2129 2327 1
2129 2354 1
2129 2355 1
2129 2358 1
2130 2131 1
2130 2132 1
2130 2133 1
2131 2132 1
2131 2133 1
2131 2134 1
2131 2136 1
2131 2165 1
2131 2168 1
2131 2169 1
2132 2133 1
2132 2164 1
2132 2165 1
2132 2168 1
2132 2355 1
2132 2358 1
2132 2359 1
2132 2390 1
2133 2134 1
2133 2136 1
2133 2331 1
2133 2358 1
2133 2359 1
2133 2362 1
2134 2135 1
2134 2136 1
2134 2137 1
2135 2136 1
2135 2137 1
2135 2138 1
2135 2140 1
2135 2169 1
2135 2172 1
2135 2173 1
2136 2137 1
2136 2168 1
2136 2169 1
2136 2172 1
2136 2359 1
2136 2362 1
2136 2363 1
2136 2394 1
2137 2138 1
2137 2140 1
2137 2335 1
2137 2362 1
2137 2363 1
2137 2366 1
2138 2139 1
2138 2140 1
2138 2141 1
2139 2140 1
2139 2141 1
2139 2142 1
2139 2144 1
2139 2173 1
2139 2176 1
2139 2177 1
2140 2141 1
2140 2172 1
2140 2173 1
2140 2176 1
2140 2363 1
2140 2366 1
2140 2367 1
2140 2398 1
2141 2142 1
2141 2144 1
2141 2339 1
2141 2366 1
2141 2367 1
2141 2370 1
2142 2143 1
2142 2144 1
2142 2145 1
2143 2144 1
2143 2145 1
2143 2146 1
2143 2148 1
2143 2177 1
2143 2180 1
2143 2181 1
2144 2145 1
2144 2176 1
2144 2177 1
2144 2180 1
2144 2367 1
2144 2370 1
2144 2371 1
2144 2402 1
2145 2146 1
2145 2148 1
2145 2343 1
2145 2370 1
2145 2371 1
2145 2374 1
2146 2147 1
2146 2148 1
2146 2149 1
2147 2148 1
2147 2149 1
2147 2181 1
2147 2184 1
2148 2149 1
2148 2180 1
2148 2181 1
2148 2184 1
2148 2371 1
2148 2374 1
2148 2375 1
2148 2406 1
2149 2374 1
2149 2375 1
2150 2151 1
2150 2152 1
2151 2152 1
2151 2153 1
2151 2155 1
2151 2185 1
2151 2187 1
2151 2188 1
2152 2153 1
2152 2155 1
2152 2345 1
2152 2377 1
2152 2378 1
2153 2154 1
2153 2155 1
2153 2156 1
2154 2155 1
2154 2156 1
2154 2157 1
2154 2159 1
2154 2188 1
2154 2191 1
2154 2192 1
2155 2156 1
2155 2187 1
2155 2188 1
2155 2191 1
2155 2377 1
2155 2378 1
2155 2379 1
2155 2410 1
2156 2157 1
2156 2159 1
2156 2347 1
2156 2378 1
2156 2379 1
2156 2382 1
2157 2158 1
2157 2159 1
2157 2160 1
2158 2159 1
2158 2160 1
2158 2161 1
2158 2163 1
2158 2192 1
2158 2195 1
2158 2196 1
2159 2160 1
2159 2191 1
2159 2192 1
2159 2195 1
2159 2379 1
2159 2382 1
2159 2383 1
2159 2414 1
2160 2161 1
2160 2163 1
2160 2351 1
2160 2382 1
2160 2383 1
2160 2386 1
2161 2162 1
2161 2163 1
2161 2164 1
2162 2163 1
2162 2164 1
2162 2165 1
2162 2167 1
2162 2196 1
2162 2199 1
2162 2200 1
2163 2164 1
2163 2195 1
2163 2196 1
2163 2199 1
2163 2383 1
2163 2386 1
2163 2387 1
2163 2418 1
2164 2165 1
2164 2167 1
2164 2355 1
2164 2386 1
2164 2387 1
2164 2390 1
2165 2166 1
2165 2167 1
2165 2168 1
2166 2167 1
2166 2168 1
2166 2169 1
2166 2171 1
2166 2200 1
2166 2203 1
2166 2204 1
2167 2168 1
2167 2199 1
2167 2200 1
2167 2203 1
2167 2387 1
2167 2390 1
2167 2391 1
2167 2422 1
2168 2169 1
2168 2171 1
2168 2359 1
2168 2390 1
2168 2391 1
2168 2394 1
2169 2170 1
2169 2171 1
2169 2172 1
2170 2171 1
2170 2172 1
2170 2173 1
2170 2175 1
2170 2204 1
2170 2207 1
2170 2208 1
2171 2172 1
2171 2203 1
2171 2204 1
2171 2207 1
2171 2391 1
2171 2394 1
2171 2395 1
2171 2426 1
2172 2173 1
2172 2175 1
2172 2363 1
2172 2394 1
2172 2395 1
2172 2398 1
2173 2174 1
2173 2175 1
2173 2176 1
2174 2175 1
2174 2176 1
2174 2177 1
2174 2179 1
2174 2208 1
2174 2211 1
2174 2212 1
2175 2176 1
2175 2207 1
2175 2208 1
2175 2211 1
2175 2395 1
2175 2398 1
2175 2399 1
2175 2430 1
2176 2177 1
2176 2179 1
2176 2367 1
2176 2398 1
2176 2399 1
2176 2402 1
2177 2178 1
2177 2179 1
2177 2180 1
2178 2179 1
2178 2180 1
2178 2181 1
2178 2183 1
2178 2212 1
2178 2215 1
2178 2216 1
2179 2180 1
2179 2211 1
2179 2212 1
2179 2215 1
2179 2399 1
2179 2402 1
2179 2403 1
2179 2434 1
2180 2181 1
2180 2183 1
2180 2371 1
2180 2402 1
2180 2403 1
2180 2406 1
2181 2182 1
2181 2183 1
2181 2184 1
2182 2183 1
2182 2184 1
2182 2216 1
2182 2219 1
2183 2184 1
2183 2215 1
2183 2216 1
2183 2219 1
2183 2403 1
2183 2406 1
2183 2407 1
2183 2438 1
2184 2375 1
2184 2406 1
2184 2407 1
2185 2186 1
2185 2187 1
2186 2187 1
2186 2188 1
2186 2190 1
2186 2221 1
2186 2222 1
2187 2188 1
2187 2190 1
2187 2377 1
2187 2409 1
2187 2410 1
2188 2189 1
2188 2190 1
2188 2191 1
2189 2190 1
2189 2191 1
2189 2192 1
2189 2194 1
2189 2222 1
2189 2225 1
2189 2226 1
2190 2191 1
2190 2221 1
2190 2222 1
2190 2225 1
2190 2409 1
2190 2410 1
2190 2411 1
2190 2441 1
2191 2192 1
2191 2194 1
2191 2379 1
2191 2410 1
2191 2411 1
2191 2414 1
2192 2193 1
2192 2194 1
2192 2195 1
2193 2194 1
2193 2195 1
2193 2196 1
2193 2198 1
2193 2226 1
2193 2229 1
2193 2230 1
2194 2195 1
2194 2225 1
2194 2226 1
2194 2229 1
2194 2411 1
2194 2414 1
2194 2415 1
2194 2444 1
2195 2196 1
2195 2198 1
2195 2383 1
2195 2414 1
2195 2415 1
2195 2418 1
2196 2197 1
2196 2198 1
2196 2199 1
2197 2198 1
2197 2199 1
2197 2200 1
2197 2202 1
2197 2230 1
2197 2233 1
2197 2234 1
2198 2199 1
2198 2229 1
2198 2230 1
2198 2233 1
2198 2415 1
2198 2418 1
2198 2419 1
2198 2448 1
2199 2200 1
2199 2202 1
2199 2387 1
2199 2418 1
2199 2419 1
2199 2422 1
2200 2201 1
2200 2202 1
2200 2203 1
2201 2202 1
2201 2203 1
2201 2204 1
2201 2206 1
2201 2234 1
2201 2237 1
2201 2238 1
2202 2203 1
2202 2233 1
2202 2234 1
2202 2237 1
2202 2419 1
2202 2422 1
2202 2423 1
2202 2452 1
2203 2204 1
2203 2206 1
2203 2391 1
2203 2422 1
2203 2423 1
2203 2426 1
2204 2205 1
2204 2206 1
2204 2207 1
2205 2206 1
2205 2207 1
2205 2208 1
2205 2210 1
2205 2238 1
2205 2241 1
2205 2242 1
2206 2207 1
2206 2237 1
2206 2238 1
2206 2241 1
2206 2423 1
2206 2426 1
2206 2427 1
2206 2456 1
2207 2208 1
2207 2210 1
2207 2395 1
2207 2426 1
2207 2427 1
2207 2430 1
2208 2209 1
2208 2210 1
2208 2211 1
2209 2210 1
2209 2211 1
2209 2212 1
2209 2214 1
2209 2242 1
2209 2245 1
2209 2246 1
2210 2211 1
2210 2241 1
2210 2242 1
2210 2245 1
2210 2427 1
2210 2430 1
2210 2431 1
2210 2460 1
2211 2212 1
2211 2214 1
2211 2399 1
2211 2430 1
2211 2431 1
2211 2434 1
2212 2213 1
2212 2214 1
2212 2215 1
2213 2214 1
2213 2215 1
2213 2216 1
2213 2218 1
2213 2246 1
2213 2249 1
2213 2250 1
2214 2215 1
2214 2245 1
2214 2246 1
2214 2249 1
2214 2431 1
2214 2434 1
2214 2435 1
2214 2464 1
2215 2216 1
2215 2218 1
2215 2403 1
2215 2434 1
2215 2435 1
2215 2438 1
2216 2217 1
2216 2218 1
2216 2219 1
2217 2218 1
2217 2219 1
2217 2250 1
2217 2253 1
2218 2219 1
2218 2249 1
2218 2250 1
2218 2253 1
2218 2435 1
2218 2438 1
2218 2439 1
2218 2468 1
2219 2407 1
2219 2438 1
2219 2439 1
2220 2221 1
2220 2222 1
2220 2224 1
2220 2254 1
2221 2222 1
2221 2224 1
2221 2409 1
2221 2441 1
2222 2223 1
2222 2224 1
2222 2225 1
2223 2224 1
2223 2225 1
2223 2226 1
2223 2228 1
2223 2254 1
2223 2256 1
2223 2257 1
2224 2225 1
2224 2254 1
2224 2256 1
2224 2441 1
2224 2442 1
2225 2226 1
2225 2228 1
2225 2411 1
2225 2441 1
2225 2442 1
2225 2444 1
2226 2227 1
2226 2228 1
2226 2229 1
2227 2228 1
2227 2229 1
2227 2230 1
2227 2232 1
2227 2257 1
2227 2260 1
2227 2261 1
2228 2229 1
2228 2256 1
2228 2257 1
2228 2260 1
2228 2442 1
2228 2444 1
2228 2445 1
2228 2469 1
2229 2230 1
2229 2232 1
2229 2415 1
2229 2444 1
2229 2445 1
2229 2448 1
2230 2231 1
2230 2232 1
2230 2233 1
2231 2232 1
2231 2233 1
2231 2234 1
2231 2236 1
2231 2261 1
2231 2264 1
2231 2265 1
2232 2233 1
2232 2260 1
2232 2261 1
2232 2264 1
2232 2445 1
2232 2448 1
2232 2449 1
2232 2472 1
2233 2234 1
2233 2236 1
2233 2419 1
2233 2448 1
2233 2449 1
2233 2452 1
2234 2235 1
2234 2236 1
2234 2237 1
2235 2236 1
2235 2237 1
2235 2238 1
2235 2240 1
2235 2265 1
2235 2268 1
2235 2269 1
2236 2237 1
2236 2264 1
2236 2265 1
2236 2268 1
2236 2449 1
2236 2452 1
2236 2453 1
2236 2476 1
2237 2238 1
2237 2240 1
2237 2423 1
2237 2452 1
2237 2453 1
2237 2456 1
2238 2239 1
2238 2240 1
2238 2241 1
2239 2240 1
2239 2241 1
2239 2242 1
2239 2244 1
2239 2269 1
2239 2272 1
2239 2273 1
2240 2241 1
2240 2268 1
2240 2269 1
2240 2272 1
2240 2453 1
2240 2456 1
2240 2457 1
2240 2480 1
2241 2242 1
2241 2244 1
2241 2427 1
2241 2456 1
2241 2457 1
2241 2460 1
2242 2243 1
2242 2244 1
2242 2245 1
2243 2244 1
2243 2245 1
2243 2246 1
2243 2248 1
2243 2273 1
2243 2276 1
2243 2277 1
2244 2245 1
2244 2272 1
2244 2273 1
2244 2276 1
2244 2457 1
2244 2460 1
2244 2461 1
2244 2484 1
2245 2246 1
2245 2248 1
2245 2431 1
2245 2460 1
2245 2461 1
2245 2464 1
2246 2247 1
2246 2248 1
2246 2249 1
2247 2248 1
2247 2249 1
2247 2250 1
2247 2252 1
2247 2277 1
2247 2280 1
2247 2281 1
2248 2249 1
2248 2276 1
2248 2277 1
2248 2280 1
2248 2461 1
2248 2464 1
2248 2465 1
2248 2488 1
2249 2250 1
2249 2252 1
2249 2435 1
2249 2464 1
2249 2465 1
2249 2468 1
2250 2251 1
2250 2252 1
2250 2253 1
2251 2252 1
2251 2253 1
2251 2281 1
2252 2253 1
2252 2280 1
2252 2281 1
2252 2465 1
2252 2468 1
2253 2439 1
2253 2468 1
2254 2255 1
2254 2256 1
2255 2256 1
2255 2257 1
2255 2259 1
2255 2282 1
2256 2257 1
2256 2259 1
2256 2442 1
2256 2469 1
2257 2258 1
2257 2259 1
2257 2260 1
2258 2259 1
2258 2260 1
2258 2261 1
2258 2263 1
2258 2282 1
2258 2284 1
2258 2285 1
2259 2260 1
2259 2282 1
2259 2284 1
2259 2469 1
2259 2470 1
2260 2261 1
2260 2263 1
2260 2445 1
2260 2469 1
2260 2470 1
2260 2472 1
2261 2262 1
2261 2263 1
2261 2264 1
2262 2263 1
2262 2264 1
2262 2265 1
2262 2267 1
2262 2285 1
2262 2288 1
2262 2289 1
2263 2264 1
2263 2284 1
2263 2285 1
2263 2288 1
2263 2470 1
2263 2472 1
2263 2473 1
2263 2489 1
2264 2265 1
2264 2267 1
2264 2449 1
2264 2472 1
2264 2473 1
2264 2476 1
2265 2266 1
2265 2267 1
2265 2268 1
2266 2267 1
2266 2268 1
2266 2269 1
2266 2271 1
2266 2289 1
2266 2292 1
2266 2293 1
2267 2268 1
2267 2288 1
2267 2289 1
2267 2292 1
2267 2473 1
2267 2476 1
2267 2477 1
2267 2492 1
2268 2269 1
2268 2271 1
2268 2453 1
2268 2476 1
2268 2477 1
2268 2480 1
2269 2270 1
2269 2271 1
2269 2272 1
2270 2271 1
2270 2272 1
2270 2273 1
2270 2275 1
2270 2293 1
2270 2296 1
2270 2297 1
2271 2272 1
2271 2292 1
2271 2293 1
2271 2296 1
2271 2477 1
2271 2480 1
2271 2481 1
2271 2495 1
2272 2273 1
2272 2275 1
2272 2457 1
2272 2480 1
2272 2481 1
2272 2484 1
2273 2274 1
2273 2275 1
2273 2276 1
2274 2275 1
2274 2276 1
2274 2277 1
2274 2279 1
2274 2297 1
2274 2300 1
2274 2301 1
2275 2276 1
2275 2296 1
2275 2297 1
2275 2300 1
2275 2481 1
2275 2484 1
2275 2485 1
2275 2498 1
2276 2277 1
2276 2279 1
2276 2461 1
2276 2484 1
2276 2485 1
2276 2488 1
2277 2278 1
2277 2279 1
2277 2280 1
2278 2279 1
2278 2280 1
2278 2281 1
2278 2301 1
2279 2280 1
2279 2300 1
2279 2301 1
2279 2485 1
2279 2488 1
2280 2281 1
2280 2465 1
2280 2488 1
2282 2283 1
2282 2284 1
2283 2284 1
2283 2285 1
2283 2287 1
2284 2285 1
2284 2287 1
2284 2470 1
2284 2489 1
2285 2286 1
2285 2287 1
2285 2288 1
2286 2287 1
2286 2288 1
2286 2289 1
2286 2291 1
2287 2288 1
2287 2489 1
2287 2490 1
2288 2289 1
2288 2291 1
2288 2473 1
2288 2489 1
2288 2490 1
2288 2492 1
2289 2290 1
2289 2291 1
2289 2292 1
2290 2291 1
2290 2292 1
2290 2293 1
2290 2295 1
2291 2292 1
2291 2490 1
2291 2492 1
2291 2493 1
2292 2293 1
2292 2295 1
2292 2477 1
2292 2492 1
2292 2493 1
2292 2495 1
2293 2294 1
2293 2295 1
2293 2296 1
2294 2295 1
2294 2296 1
2294 2297 1
2294 2299 1
2295 2296 1
2295 2493 1
2295 2495 1
2295 2496 1
2296 2297 1
2296 2299 1
2296 2481 1
2296 2495 1
2296 2496 1
2296 2498 1
2297 2298 1
2297 2299 1
2297 2300 1
2298 2299 1
2298 2300 1
2298 2301 1
2299 2300 1
2299 2496 1
2299 2498 1
2300 2301 1
2300 2485 1
2300 2498 1
2302 2306 1
2302 2309 1
2302 2310 1
2303 2310 1
2303 2313 1
2303 2314 1
2304 2314 1
2304 2317 1
2304 2318 1
2305 2306 1
2305 2308 1
2305 2322 1
2305 2325 1
2305 2326 1
2306 2307 1
2306 2308 1
2306 2309 1
2307 2308 1
2307 2309 1
2307 2310 1
2307 2312 1
2307 2326 1
2307 2329 1
2307 2330 1
2308 2309 1
2308 2325 1
2308 2326 1
2308 2329 1
2308 2499 1
2308 2503 1
2309 2310 1
2309 2312 1
2309 2499 1
2310 2311 1
2310 2312 1
2310 2313 1
2311 2312 1
2311 2313 1
2311 2314 1
2311 2316 1
2311 2330 1
2311 2333 1
2311 2334 1
2312 2313 1
2312 2329 1
2312 2330 1
2312 2333 1
2312 2499 1
2312 2500 1
2312 2507 1
2313 2314 1
2313 2316 1
2313 2500 1
2314 2315 1
2314 2316 1
2314 2317 1
2315 2316 1
2315 2317 1
2315 2318 1
2315 2320 1
2315 2334 1
2315 2337 1
2315 2338 1
2316 2317 1
2316 2333 1
2316 2334 1
2316 2337 1
2316 2500 1
2316 2501 1
2316 2511 1
2317 2318 1
2317 2320 1
2317 2501 1
2318 2319 1
2318 2320 1
2319 2320 1
2319 2338 1
2319 2341 1
2319 2342 1
2320 2337 1
2320 2338 1
2320 2341 1
2320 2501 1
2320 2515 1
2321 2322 1
2321 2324 1
2321 2346 1
2321 2349 1
2321 2350 1
2322 2323 1
2322 2324 1
2322 2325 1
2323 2324 1
2323 2325 1
2323 2326 1
2323 2328 1
2323 2350 1
2323 2353 1
2323 2354 1
2324 2325 1
2324 2349 1
2324 2350 1
2324 2353 1
2324 2502 1
2324 2519 1
2325 2326 1
2325 2328 1
2325 2502 1
2325 2503 1
2326 2327 1
2326 2328 1
2326 2329 1
2327 2328 1
2327 2329 1
2327 2330 1
2327 2332 1
2327 2354 1
2327 2357 1
2327 2358 1
2328 2329 1
2328 2353 1
2328 2354 1
2328 2357 1
2328 2502 1
2328 2503 1
2328 2504 1
2328 2523 1
2329 2330 1
2329 2332 1
2329 2499 1
2329 2503 1
2329 2504 1
2329 2507 1
2330 2331 1
2330 2332 1
2330 2333 1
2331 2332 1
2331 2333 1
2331 2334 1
2331 2336 1
2331 2358 1
2331 2361 1
2331 2362 1
2332 2333 1
2332 2357 1
2332 2358 1
2332 2361 1
2332 2504 1
2332 2507 1
2332 2508 1
2332 2527 1
2333 2334 1
2333 2336 1
2333 2500 1
2333 2507 1
2333 2508 1
2333 2511 1
2334 2335 1
2334 2336 1
2334 2337 1
2335 2336 1
2335 2337 1
2335 2338 1
2335 2340 1
2335 2362 1
2335 2365 1
2335 2366 1
2336 2337 1
2336 2361 1
2336 2362 1
2336 2365 1
2336 2508 1
2336 2511 1
2336 2512 1
2336 2531 1
2337 2338 1
2337 2340 1
2337 2501 1
2337 2511 1
2337 2512 1
2337 2515 1
2338 2339 1
2338 2340 1
2338 2341 1
2339 2340 1
2339 2341 1
2339 2342 1
2339 2344 1
2339 2366 1
2339 2369 1
2339 2370 1
2340 2341 1
2340 2365 1
2340 2366 1
2340 2369 1
2340 2512 1
2340 2515 1
2340 2516 1
2340 2535 1
2341 2342 1
2341 2344 1
2341 2515 1
2341 2516 1
2342 2343 1
2342 2344 1
2343 2344 1
2343 2370 1
2343 2373 1
2343 2374 1
2344 2369 1
2344 2370 1
2344 2373 1
2344 2516 1
2344 2539 1
2345 2346 1
2345 2348 1
2345 2378 1
2346 2347 1
2346 2348 1
2346 2349 1
2347 2348 1
2347 2349 1
2347 2350 1
2347 2352 1
2347 2378 1
2347 2381 1
2347 2382 1
2348 2349 1
2348 2378 1
2348 2381 1
2348 2518 1
2349 2350 1
2349 2352 1
2349 2518 1
2349 2519 1
2350 2351 1
2350 2352 1
2350 2353 1
2351 2352 1
2351 2353 1
2351 2354 1
2351 2356 1
2351 2382 1
2351 2385 1
2351 2386 1
2352 2353 1
2352 2381 1
2352 2382 1
2352 2385 1
2352 2518 1
2352 2519 1
2352 2520 1
2352 2543 1
2353 2354 1
2353 2356 1
2353 2502 1
2353 2519 1
2353 2520 1
2353 2523 1
2354 2355 1
2354 2356 1
2354 2357 1
2355 2356 1
2355 2357 1
2355 2358 1
2355 2360 1
2355 2386 1
2355 2389 1
2355 2390 1
2356 2357 1
2356 2385 1
2356 2386 1
2356 2389 1
2356 2520 1
2356 2523 1
2356 2524 1
2356 2547 1
2357 2358 1
2357 2360 1
2357 2504 1
2357 2523 1
2357 2524 1
2357 2527 1
2358 2359 1
2358 2360 1
2358 2361 1
2359 2360 1
2359 2361 1
2359 2362 1
2359 2364 1
2359 2390 1
2359 2393 1
2359 2394 1
2360 2361 1
2360 2389 1
2360 2390 1
2360 2393 1
2360 2524 1
2360 2527 1
2360 2528 1
2360 2551 1
2361 2362 1
2361 2364 1
2361 2508 1
2361 2527 1
2361 2528 1
2361 2531 1
2362 2363 1
2362 2364 1
2362 2365 1
2363 2364 1
2363 2365 1
2363 2366 1
2363 2368 1
2363 2394 1
2363 2397 1
2363 2398 1
2364 2365 1
2364 2393 1
2364 2394 1
2364 2397 1
2364 2528 1
2364 2531 1
2364 2532 1
2364 2555 1
2365 2366 1
2365 2368 1
2365 2512 1
2365 2531 1
2365 2532 1
2365 2535 1
2366 2367 1
2366 2368 1
2366 2369 1
2367 2368 1
2367 2369 1
2367 2370 1
2367 2372 1
2367 2398 1
2367 2401 1
2367 2402 1
2368 2369 1
2368 2397 1
2368 2398 1
2368 2401 1
2368 2532 1
2368 2535 1
2368 2536 1
2368 2559 1
2369 2370 1
2369 2372 1
2369 2516 1
2369 2535 1
2369 2536 1
2369 2539 1
2370 2371 1
2370 2372 1
2370 2373 1
2371 2372 1
2371 2373 1
2371 2374 1
2371 2376 1
2371 2402 1
2371 2405 1
2371 2406 1
2372 2373 1
2372 2401 1
2372 2402 1
2372 2405 1
2372 2536 1
2372 2539 1
2372 2540 1
2372 2563 1
2373 2374 1
2373 2376 1
2373 2539 1
2373 2540 1
2374 2375 1
2374 2376 1
2375 2376 1
2375 2406 1
2376 2405 1
2376 2406 1
2376 2540 1
2377 2378 1
2377 2380 1
2377 2410 1
2378 2379 1
2378 2380 1
2378 2381 1
2379 2380 1
2379 2381 1
2379 2382 1
2379 2384 1
2379 2410 1
2379 2413 1
2379 2414 1
2380 2381 1
2380 2410 1
2380 2413 1
2380 2542 1
2381 2382 1
2381 2384 1
2381 2518 1
2381 2542 1
2381 2543 1
2382 2383 1
2382 2384 1
2382 2385 1
2383 2384 1
2383 2385 1
2383 2386 1
2383 2388 1
2383 2414 1
2383 2417 1
2383 2418 1
2384 2385 1
2384 2413 1
2384 2414 1
2384 2417 1
2384 2542 1
2384 2543 1
2384 2544 1
2384 2567 1
2385 2386 1
2385 2388 1
2385 2520 1
2385 2543 1
2385 2544 1
2385 2547 1
2386 2387 1
2386 2388 1
2386 2389 1
2387 2388 1
2387 2389 1
2387 2390 1
2387 2392 1
2387 2418 1
2387 2421 1
2387 2422 1
2388 2389 1
2388 2417 1
2388 2418 1
2388 2421 1
2388 2544 1
2388 2547 1
2388 2548 1
2388 2571 1
2389 2390 1
2389 2392 1
2389 2524 1
2389 2547 1
2389 2548 1
2389 2551 1
2390 2391 1
2390 2392 1
2390 2393 1
2391 2392 1
2391 2393 1
2391 2394 1
2391 2396 1
2391 2422 1
2391 2425 1
2391 2426 1
2392 2393 1
2392 2421 1
2392 2422 1
2392 2425 1
2392 2548 1
2392 2551 1
2392 2552 1
2392 2575 1
2393 2394 1
2393 2396 1
2393 2528 1
2393 2551 1
2393 2552 1
2393 2555 1
2394 2395 1
2394 2396 1
2394 2397 1
2395 2396 1
2395 2397 1
2395 2398 1
2395 2400 1
2395 2426 1
2395 2429 1
2395 2430 1
2396 2397 1
2396 2425 1
2396 2426 1
2396 2429 1
2396 2552 1
2396 2555 1
2396 2556 1
2396 2579 1
2397 2398 1
2397 2400 1
2397 2532 1
2397 2555 1
2397 2556 1
2397 2559 1
2398 2399 1
2398 2400 1
2398 2401 1
2399 2400 1
2399 2401 1
2399 2402 1
2399 2404 1
2399 2430 1
2399 2433 1
2399 2434 1
2400 2401 1
2400 2429 1
2400 2430 1
2400 2433 1
2400 2556 1
2400 2559 1
2400 2560 1
2400 2583 1
2401 2402 1
2401 2404 1
2401 2536 1
2401 2559 1
2401 2560 1
2401 2563 1
2402 2403 1
2402 2404 1
2402 2405 1
2403 2404 1
2403 2405 1
2403 2406 1
2403 2408 1
2403 2434 1
2403 2437 1
2403 2438 1
2404 2405 1
2404 2433 1
2404 2434 1
2404 2437 1
2404 2560 1
2404 2563 1
2404 2564 1
2404 2587 1
2405 2406 1
2405 2408 1
2405 2540 1
2405 2563 1
2405 2564 1
2406 2407 1
2406 2408 1
2407 2408 1
2407 2438 1
2408 2437 1
2408 2438 1
2408 2564 1
2409 2410 1
2409 2412 1
2409 2441 1
2410 2411 1
2410 2412 1
2410 2413 1
2411 2412 1
2411 2413 1
2411 2414 1
2411 2416 1
2411 2441 1
2411 2443 1
2411 2444 1
2412 2413 1
2412 2441 1
2412 2443 1
2412 2566 1
2413 2414 1
2413 2416 1
2413 2542 1
2413 2566 1
2413 2567 1
2414 2415 1
2414 2416 1
2414 2417 1
2415 2416 1
2415 2417 1
2415 2418 1
2415 2420 1
2415 2444 1
2415 2447 1
2415 2448 1
2416 2417 1
2416 2443 1
2416 2444 1
2416 2447 1
2416 2566 1
2416 2567 1
2416 2568 1
2416 2590 1
2417 2418 1
2417 2420 1
2417 2544 1
2417 2567 1
2417 2568 1
2417 2571 1
2418 2419 1
2418 2420 1
2418 2421 1
2419 2420 1
2419 2421 1
2419 2422 1
2419 2424 1
2419 2448 1
2419 2451 1
2419 2452 1
2420 2421 1
2420 2447 1
2420 2448 1
2420 2451 1
2420 2568 1
2420 2571 1
2420 2572 1
2420 2593 1
2421 2422 1
2421 2424 1
2421 2548 1
2421 2571 1
2421 2572 1
2421 2575 1
2422 2423 1
2422 2424 1
2422 2425 1
2423 2424 1
2423 2425 1
2423 2426 1
2423 2428 1
2423 2452 1
2423 2455 1
2423 2456 1
2424 2425 1
2424 2451 1
2424 2452 1
2424 2455 1
2424 2572 1
2424 2575 1
2424 2576 1
2424 2597 1
2425 2426 1
2425 2428 1
2425 2552 1
2425 2575 1
2425 2576 1
2425 2579 1
2426 2427 1
2426 2428 1
2426 2429 1
2427 2428 1
2427 2429 1
2427 2430 1
2427 2432 1
2427 2456 1
2427 2459 1
2427 2460 1
2428 2429 1
2428 2455 1
2428 2456 1
2428 2459 1
2428 2576 1
2428 2579 1
2428 2580 1
2428 2601 1
2429 2430 1
2429 2432 1
2429 2556 1
2429 2579 1
2429 2580 1
2429 2583 1
2430 2431 1
2430 2432 1
2430 2433 1
2431 2432 1
2431 2433 1
2431 2434 1
2431 2436 1
2431 2460 1
2431 2463 1
2431 2464 1
2432 2433 1
2432 2459 1
2432 2460 1
2432 2463 1
2432 2580 1
2432 2583 1
2432 2584 1
2432 2605 1
2433 2434 1
2433 2436 1
2433 2560 1
2433 2583 1
2433 2584 1
2433 2587 1
2434 2435 1
2434 2436 1
2434 2437 1
2435 2436 1
2435 2437 1
2435 2438 1
2435 2440 1
2435 2464 1
2435 2467 1
2435 2468 1
2436 2437 1
2436 2463 1
2436 2464 1
2436 2467 1
2436 2584 1
2436 2587 1
2436 2588 1
2436 2609 1
2437 2438 1
2437 2440 1
2437 2564 1
2437 2587 1
2437 2588 1
2438 2439 1
2438 2440 1
2439 2440 1
2439 2468 1
2440 2467 1
2440 2468 1
2440 2588 1
2441 2442 1
2441 2443 1
2442 2443 1
2442 2444 1
2442 2446 1
2442 2469 1
2443 2444 1
2443 2446 1
2443 2566 1
2443 2590 1
2444 2445 1
2444 2446 1
2444 2447 1
2445 2446 1
2445 2447 1
2445 2448 1
2445 2450 1
2445 2469 1
2445 2471 1
2445 2472 1
2446 2447 1
2446 2469 1
2446 2471 1
2446 2590 1
2446 2591 1
2447 2448 1
2447 2450 1
2447 2568 1
2447 2590 1
2447 2591 1
2447 2593 1
2448 2449 1
2448 2450 1
2448 2451 1
2449 2450 1
2449 2451 1
2449 2452 1
2449 2454 1
2449 2472 1
2449 2475 1
2449 2476 1
2450 2451 1
2450 2471 1
2450 2472 1
2450 2475 1
2450 2591 1
2450 2593 1
2450 2594 1
2450 2610 1
2451 2452 1
2451 2454 1
2451 2572 1
2451 2593 1
2451 2594 1
2451 2597 1
2452 2453 1
2452 2454 1
2452 2455 1
2453 2454 1
2453 2455 1
2453 2456 1
2453 2458 1
2453 2476 1
2453 2479 1
2453 2480 1
2454 2455 1
2454 2475 1
2454 2476 1
2454 2479 1
2454 2594 1
2454 2597 1
2454 2598 1
2454 2613 1
2455 2456 1
2455 2458 1
2455 2576 1
2455 2597 1
2455 2598 1
2455 2601 1
2456 2457 1
2456 2458 1
2456 2459 1
2457 2458 1
2457 2459 1
2457 2460 1
2457 2462 1
2457 2480 1
2457 2483 1
2457 2484 1
2458 2459 1
2458 2479 1
2458 2480 1
2458 2483 1
2458 2598 1
2458 2601 1
2458 2602 1
2458 2616 1
2459 2460 1
2459 2462 1
2459 2580 1
2459 2601 1
2459 2602 1
2459 2605 1
2460 2461 1
2460 2462 1
2460 2463 1
2461 2462 1
2461 2463 1
2461 2464 1
2461 2466 1
2461 2484 1
2461 2487 1
2461 2488 1
2462 2463 1
2462 2483 1
2462 2484 1
2462 2487 1
2462 2602 1
2462 2605 1
2462 2606 1
2462 2619 1
2463 2464 1
2463 2466 1
2463 2584 1
2463 2605 1
2463 2606 1
2463 2609 1
2464 2465 1
2464 2466 1
2464 2467 1
2465 2466 1
2465 2467 1
2465 2468 1
2465 2488 1
2466 2467 1
2466 2487 1
2466 2488 1
2466 2606 1
2466 2609 1
2467 2468 1
2467 2588 1
2467 2609 1
2469 2470 1
2469 2471 1
2470 2471 1
2470 2472 1
2470 2474 1
2470 2489 1
2471 2472 1
2471 2474 1
2471 2591 1
2471 2610 1
2472 2473 1
2472 2474 1
2472 2475 1
2473 2474 1
2473 2475 1
2473 2476 1
2473 2478 1
2473 2489 1
2473 2491 1
2473 2492 1
2474 2475 1
2474 2489 1
2474 2491 1
2474 2610 1
2474 2611 1
2475 2476 1
2475 2478 1
2475 2594 1
2475 2610 1
2475 2611 1
2475 2613 1
2476 2477 1
2476 2478 1
2476 2479 1
2477 2478 1
2477 2479 1
2477 2480 1
2477 2482 1
2477 2492 1
2477 2494 1
2477 2495 1
2478 2479 1
2478 2491 1
2478 2492 1
2478 2494 1
2478 2611 1
2478 2613 1
2478 2614 1
2479 2480 1
2479 2482 1
2479 2598 1
2479 2613 1
2479 2614 1
2479 2616 1
2480 2481 1
2480 2482 1
2480 2483 1
2481 2482 1
2481 2483 1
2481 2484 1
2481 2486 1
2481 2495 1
2481 2497 1
2481 2498 1
2482 2483 1
2482 2494 1
2482 2495 1
2482 2497 1
2482 2614 1
2482 2616 1
2482 2617 1
2483 2484 1
2483 2486 1
2483 2602 1
2483 2616 1
2483 2617 1
2483 2619 1
2484 2485 1
2484 2486 1
2484 2487 1
2485 2486 1
2485 2487 1
2485 2488 1
2485 2498 1
2486 2487 1
2486 2497 1
2486 2498 1
2486 2617 1
2486 2619 1
2487 2488 1
2487 2606 1
2487 2619 1
2489 2490 1
2489 2491 1
2490 2491 1
2490 2492 1
2491 2492 1
2491 2611 1
2492 2493 1
2492 2494 1
2493 2494 1
2493 2495 1
2494 2495 1
2494 2614 1
2495 2496 1
2495 2497 1
2496 2497 1
2496 2498 1
2497 2498 1
2497 2617 1
2499 2503 1
2499 2506 1
2499 2507 1
2500 2507 1
2500 2510 1
2500 2511 1
2501 2511 1
2501 2514 1
2501 2515 1
2502 2503 1
2502 2505 1
2502 2519 1
2502 2522 1
2502 2523 1
2503 2504 1
2503 2505 1
2503 2506 1
2504 2505 1
2504 2506 1
2504 2507 1
2504 2509 1
2504 2523 1
2504 2526 1
2504 2527 1
2505 2506 1
2505 2522 1
2505 2523 1
2505 2526 1
2506 2507 1
2506 2509 1
2507 2508 1
2507 2509 1
2507 2510 1
2508 2509 1
2508 2510 1
2508 2511 1
2508 2513 1
2508 2527 1
2508 2530 1
2508 2531 1
2509 2510 1
2509 2526 1
2509 2527 1
2509 2530 1
2510 2511 1
2510 2513 1
2511 2512 1
2511 2513 1
2511 2514 1
2512 2513 1
2512 2514 1
2512 2515 1
2512 2517 1
2512 2531 1
2512 2534 1
2512 2535 1
2513 2514 1
2513 2530 1
2513 2531 1
2513 2534 1
2514 2515 1
2514 2517 1
2515 2516 1
2515 2517 1
2516 2517 1
2516 2535 1
2516 2538 1
2516 2539 1
2517 2534 1
2517 2535 1
2517 2538 1
2518 2519 1
2518 2521 1
2518 2543 1
2519 2520 1
2519 2521 1
2519 2522 1
2520 2521 1
2520 2522 1
2520 2523 1
2520 2525 1
2520 2543 1
2520 2546 1
2520 2547 1
2521 2522 1
2521 2543 1
2521 2546 1
2522 2523 1
2522 2525 1
2523 2524 1
2523 2525 1
2523 2526 1
2524 2525 1
2524 2526 1
2524 2527 1
2524 2529 1
2524 2547 1
2524 2550 1
2524 2551 1
2525 2526 1
2525 2546 1
2525 2547 1
2525 2550 1
2526 2527 1
2526 2529 1
2527 2528 1
2527 2529 1
2527 2530 1
2528 2529 1
2528 2530 1
2528 2531 1
2528 2533 1
2528 2551 1
2528 2554 1
2528 2555 1
2529 2530 1
2529 2550 1
2529 2551 1
2529 2554 1
2530 2531 1
2530 2533 1
2531 2532 1
2531 2533 1
2531 2534 1
2532 2533 1
2532 2534 1
2532 2535 1
2532 2537 1
2532 2555 1
2532 2558 1
2532 2559 1
2533 2534 1
2533 2554 1
2533 2555 1
2533 2558 1
2534 2535 1
2534 2537 1
2535 2536 1
2535 2537 1
2535 2538 1
2536 2537 1
2536 2538 1
2536 2539 1
2536 2541 1
2536 2559 1
2536 2562 1
2536 2563 1
2537 2538 1
2537 2558 1
2537 2559 1
2537 2562 1
2538 2539 1
2538 2541 1
2539 2540 1
2539 2541 1
2540 2541 1
2540 2563 1
2541 2562 1
2541 2563 1
2542 2543 1
2542 2545 1
2542 2567 1
2543 2544 1
2543 2545 1
2543 2546 1
2544 2545 1
2544 2546 1
2544 2547 1
2544 2549 1
2544 2567 1
2544 2570 1
2544 2571 1
2545 2546 1
2545 2567 1
2545 2570 1
2546 2547 1
2546 2549 1
2547 2548 1
2547 2549 1
2547 2550 1
2548 2549 1
2548 2550 1
2548 2551 1
2548 2553 1
2548 2571 1
2548 2574 1
2548 2575 1
2549 2550 1
2549 2570 1
2549 2571 1
2549 2574 1
2550 2551 1
2550 2553 1
2551 2552 1
2551 2553 1
2551 2554 1
2552 2553 1
2552 2554 1
2552 2555 1
2552 2557 1
2552 2575 1
2552 2578 1
2552 2579 1
2553 2554 1
2553 2574 1
2553 2575 1
2553 2578 1
2554 2555 1
2554 2557 1
2555 2556 1
2555 2557 1
2555 2558 1
2556 2557 1
2556 2558 1
2556 2559 1
2556 2561 1
2556 2579 1
2556 2582 1
2556 2583 1
2557 2558 1
2557 2578 1
2557 2579 1
2557 2582 1
2558 2559 1
2558 2561 1
2559 2560 1
2559 2561 1
2559 2562 1
2560 2561 1
2560 2562 1
2560 2563 1
2560 2565 1
2560 2583 1
2560 2586 1
2560 2587 1
2561 2562 1
2561 2582 1
2561 2583 1
2561 2586 1
2562 2563 1
2562 2565 1
2563 2564 1
2563 2565 1
2564 2565 1
2564 2587 1
2565 2586 1
2565 2587 1
2566 2567 1
2566 2569 1
2566 2590 1
2567 2568 1
2567 2569 1
2567 2570 1
2568 2569 1
2568 2570 1
2568 2571 1
2568 2573 1
2568 2590 1
2568 2592 1
2568 2593 1
2569 2570 1
2569 2590 1
2569 2592 1
2570 2571 1
2570 2573 1
2571 2572 1
2571 2573 1
2571 2574 1
2572 2573 1
2572 2574 1
2572 2575 1
2572 2577 1
2572 2593 1
2572 2596 1
2572 2597 1
2573 2574 1
2573 2592 1
2573 2593 1
2573 2596 1
2574 2575 1
2574 2577 1
2575 2576 1
2575 2577 1
2575 2578 1
2576 2577 1
2576 2578 1
2576 2579 1
2576 2581 1
2576 2597 1
2576 2600 1
2576 2601 1
2577 2578 1
2577 2596 1
2577 2597 1
2577 2600 1
2578 2579 1
2578 2581 1
2579 2580 1
2579 2581 1
2579 2582 1
2580 2581 1
2580 2582 1
2580 2583 1
2580 2585 1
2580 2601 1
2580 2604 1
2580 2605 1
2581 2582 1
2581 2600 1
2581 2601 1
2581 2604 1
2582 2583 1
2582 2585 1
2583 2584 1
2583 2585 1
2583 2586 1
2584 2585 1
2584 2586 1
2584 2587 1
2584 2589 1
2584 2605 1
2584 2608 1
2584 2609 1
2585 2586 1
2585 2604 1
2585 2605 1
2585 2608 1
2586 2587 1
2586 2589 1
2587 2588 1
2587 2589 1
2588 2589 1
2588 2609 1
2589 2608 1
2589 2609 1
2590 2591 1
2590 2592 1
2591 2592 1
2591 2593 1
2591 2595 1
2591 2610 1
2592 2593 1
2592 2595 1
2593 2594 1
2593 2595 1
2593 2596 1
2594 2595 1
2594 2596 1
2594 2597 1
2594 2599 1
2594 2610 1
2594 2612 1
2594 2613 1
2595 2596 1
2595 2610 1
2595 2612 1
2596 2597 1
2596 2599 1
2597 2598 1
2597 2599 1
2597 2600 1
2598 2599 1
2598 2600 1
2598 2601 1
2598 2603 1
2598 2613 1
2598 2615 1
2598 2616 1
2599 2600 1
2599 2612 1
2599 2613 1
2599 2615 1
2600 2601 1
2600 2603 1
2601 2602 1
2601 2603 1
2601 2604 1
2602 2603 1
2602 2604 1
2602 2605 1
2602 2607 1
2602 2616 1
2602 2618 1
2602 2619 1
2603 2604 1
2603 2615 1
2603 2616 1
2603 2618 1
2604 2605 1
2604 2607 1
2605 2606 1
2605 2607 1
2605 2608 1
2606 2607 1
2606 2608 1
2606 2609 1
2606 2619 1
2607 2608 1
2607 2618 1
2607 2619 1
2608 2609 1
2610 2611 1
2610 2612 1
2611 2612 1
2611 2613 1
2612 2613 1
2613 2614 1
2613 2615 1
2614 2615 1
2614 2616 1
2615 2616 1
2616 2617 1
2616 2618 1
2617 2618 1
2617 2619 1
2618 2619 1
;sub-graft
1 2578 1
7 2558 1
13 2550 1
19 2604 1
25 2513 1
31 2573 1
37 2586 1
43 2505 1
49 2615 1
55 2517 1
61 2545 1
67 2608 1
73 2507 1
79 2610 1
85 2540 1
91 2519 1
97 2617 1
103 2501 1
109 2566 1
115 2588 1
121 2308 1
127 2491 1
133 2344 1
139 2348 1
145 2485 1
151 2303 1
157 2469 1
163 2407 1
169 2088 1
175 2493 1
181 2319 1
187 2409 1
193 2252 1
199 2051 1
205 2284 1
211 2149 1
217 2117 1
223 2298 1
229 2059 1
235 2220 1
241 2217 1
247 2061 1
253 2291 1
259 2082 1
265 2150 1
271 2023 1
277 2052 1
283 2025 1
289 1921 1
295 1817 1
301 2044 1
307 1787 1
313 1958 1
319 1990 1
325 1770 1
331 2027 1
337 1847 1
343 1850 1
349 1768 1
355 1780 1
361 1717 1
367 1678 1
373 1511 1
379 1761 1
385 1535 1
391 1643 1
397 1745 1
403 1496 1
409 1749 1
415 1328 1
421 1537 1
427 1764 1
433 1505 1
439 1680 1
445 1434 1
451 1217 1
457 1473 1
463 1259 1
469 1329 1
475 1490 1
481 1224 1
487 1437 1
493 1362 1
499 1262 1
505 1211 1
511 1255 1
517 1366 1
523 1174 1
529 988 1
535 1203 1
541 1075 1
547 1043 1
553 1215 1
559 991 1
565 1147 1
571 1141 1
577 995 1
583 1206 1
589 1037 1
595 1076 1
601 1197 1
607 832 1
613 968 1
619 887 1
625 862 1
631 986 1
637 839 1
643 916 1
649 940 1
655 843 1
661 970 1
667 883 1
673 860 1
679 825 1
685 760 1
691 816 1
697 797 1
703 765 1
709 828 1
715 763 1
721 799 1
727 812 1
733 769 1
739 801 1
745 791 1
751 786 1

[ angles ]
1 2 3 2
2 3 4 2
3 4 5 2
4 5 6 2
7 8 9 2
8 9 10 2
9 10 11 2
10 11 12 2
13 14 15 2
14 15 16 2
15 16 17 2
16 17 18 2
19 20 21 2
20 21 22 2
21 22 23 2
22 23 24 2
25 26 27 2
26 27 28 2
27 28 29 2
28 29 30 2
31 32 33 2
32 33 34 2
33 34 35 2
34 35 36 2
37 38 39 2
38 39 40 2
39 40 41 2
40 41 42 2
43 44 45 2
44 45 46 2
45 46 47 2
46 47 48 2
49 50 51 2
50 51 52 2
51 52 53 2
52 53 54 2
55 56 57 2
56 57 58 2
57 58 59 2
58 59 60 2
61 62 63 2
62 63 64 2
63 64 65 2
64 65 66 2
67 68 69 2
68 69 70 2
69 70 71 2
70 71 72 2
73 74 75 2
74 75 76 2
75 76 77 2
76 77 78 2
79 80 81 2
80 81 82 2
81 82 83 2
82 83 84 2
85 86 87 2
86 87 88 2
87 88 89 2
88 89 90 2
91 92 93 2
92 93 94 2
93 94 95 2
94 95 96 2
97 98 99 2
98 99 100 2
99 100 101 2
100 101 102 2
103 104 105 2
104 105 106 2
105 106 107 2
106 107 108 2
109 110 111 2
110 111 112 2
111 112 113 2
112 113 114 2
115 116 117 2
116 117 118 2
117 118 119 2
118 119 120 2
121 122 123 2
122 123 124 2
123 124 125 2
124 125 126 2
127 128 129 2
128 129 130 2
129 130 131 2
130 131 132 2
133 134 135 2
134 135 136 2
135 136 137 2
136 137 138 2
139 140 141 2
140 141 142 2
141 142 143 2
142 143 144 2
145 146 147 2
146 147 148 2
147 148 149 2
148 149 150 2
151 152 153 2
152 153 154 2
153 154 155 2
154 155 156 2
157 158 159 2
158 159 160 2
159 160 161 2
160 161 162 2
163 164 165 2
164 165 166 2
165 166 167 2
166 167 168 2
169 170 171 2
170 171 172 2
171 172 173 2
172 173 174 2
175 176 177 2
176 177 178 2
177 178 179 2
178 179 180 2
181 182 183 2
182 183 184 2
183 184 185 2
184 185 186 2
187 188 189 2
188 189 190 2
189 190 191 2
190 191 192 2
193 194 195 2
194 195 196 2
195 196 197 2
196 197 198 2
199 200 201 2
200 201 202 2
201 202 203 2
202 203 204 2
205 206 207 2
206 207 208 2
207 208 209 2
208 209 210 2
211 212 213 2
212 213 214 2
213 214 215 2
214 215 216 2
217 218 219 2
218 219 220 2
219 220 221 2
220 221 222 2
223 224 225 2
224 225 226 2
225 226 227 2
226 227 228 2
229 230 231 2
230 231 232 2
231 232 233 2
232 233 234 2
235 236 237 2
236 237 238 2
237 238 239 2
238 239 240 2
241 242 243 2
242 243 244 2
243 244 245 2
244 245 246 2
247 248 249 2
248 249 250 2
249 250 251 2
250 251 252 2
253 254 255 2
254 255 256 2
255 256 257 2
256 257 258 2
259 260 261 2
260 261 262 2
261 262 263 2
262 263 264 2
265 266 267 2
266 267 268 2
267 268 269 2
268 269 270 2
271 272 273 2
272 273 274 2
273 274 275 2
274 275 276 2
277 278 279 2
278 279 280 2
279 280 281 2
280 281 282 2
283 284 285 2
284 285 286 2
285 286 287 2
286 287 288 2
289 290 291 2
290 291 292 2
291 292 293 2
292 293 294 2
295 296 297 2
296 297 298 2
297 298 299 2
298 299 300 2
301 302 303 2
302 303 304 2
303 304 305 2
304 305 306 2
307 308 309 2
308 309 310 2
309 310 311 2
310 311 312 2
313 314 315 2
314 315 316 2
315 316 317 2
316 317 318 2
319 320 321 2
320 321 322 2
321 322 323 2
322 323 324 2
325 326 327 2
326 327 328 2
327 328 329 2
328 329 330 2
331 332 333 2
332 333 334 2
333 334 335 2
334 335 336 2
337 338 339 2
338 339 340 2
339 340 341 2
340 341 342 2
343 344 345 2
344 345 346 2
345 346 347 2
346 347 348 2
349 350 351 2
350 351 352 2
351 352 353 2
352 353 354 2
355 356 357 2
356 357 358 2
357 358 359 2
358 359 360 2
361 362 363 2
362 363 364 2
363 364 365 2
364 365 366 2
367 368 369 2
368 369 370 2
369 370 371 2
370 371 372 2
373 374 375 2
374 375 376 2
375 376 377 2
376 377 378 2
379 380 381 2
380 381 382 2
381 382 383 2
382 383 384 2
385 386 387 2
386 387 388 2
387 388 389 2
388 389 390 2
391 392 393 2
392 393 394 2
393 394 395 2
394 395 396 2
397 398 399 2
398 399 400 2
399 400 401 2
400 401 402 2
403 404 405 2
404 405 406 2
405 406 407 2
406 407 408 2
409 410 411 2
410 411 412 2
411 412 413 2
412 413 414 2
415 416 417 2
416 417 418 2
417 418 419 2
418 419 420 2
421 422 423 2
422 423 424 2
423 424 425 2
424 425 426 2
427 428 429 2
428 429 430 2
429 430 431 2
430 431 432 2
433 434 435 2
434 435 436 2
435 436 437 2
436 437 438 2
439 440 441 2
440 441 442 2
441 442 443 2
442 443 444 2
445 446 447 2
446 447 448 2
447 448 449 2
448 449 450 2
451 452 453 2
452 453 454 2
453 454 455 2
454 455 456 2
457 458 459 2
458 459 460 2
459 460 461 2
460 461 462 2
463 464 465 2
464 465 466 2
465 466 467 2
466 467 468 2
469 470 471 2
470 471 472 2
471 472 473 2
472 473 474 2
475 476 477 2
476 477 478 2
477 478 479 2
478 479 480 2
481 482 483 2
482 483 484 2
483 484 485 2
484 485 486 2
487 488 489 2
488 489 490 2
489 490 491 2
490 491 492 2
493 494 495 2
494 495 496 2
495 496 497 2
496 497 498 2
499 500 501 2
500 501 502 2
501 502 503 2
502 503 504 2
505 506 507 2
506 507 508 2
507 508 509 2
508 509 510 2
511 512 513 2
512 513 514 2
513 514 515 2
514 515 516 2
517 518 519 2
518 519 520 2
519 520 521 2
520 521 522 2
523 524 525 2
524 525 526 2
525 526 527 2
526 527 528 2
529 530 531 2
530 531 532 2
531 532 533 2
532 533 534 2
535 536 537 2
536 537 538 2
537 538 539 2
538 539 540 2
541 542 543 2
542 543 544 2
543 544 545 2
544 545 546 2
547 548 549 2
548 549 550 2
549 550 551 2
550 551 552 2
553 554 555 2
554 555 556 2
555 556 557 2
556 557 558 2
559 560 561 2
560 561 562 2
561 562 563 2
562 563 564 2
565 566 567 2
566 567 568 2
567 568 569 2
568 569 570 2
571 572 573 2
572 573 574 2
573 574 575 2
574 575 576 2
577 578 579 2
578 579 580 2
579 580 581 2
580 581 582 2
583 584 585 2
584 585 586 2
585 586 587 2
586 587 588 2
589 590 591 2
590 591 592 2
591 592 593 2
592 593 594 2
595 596 597 2
596 597 598 2
597 598 599 2
598 599 600 2
601 602 603 2
602 603 604 2
603 604 605 2
604 605 606 2
607 608 609 2
608 609 610 2
609 610 611 2
610 611 612 2
613 614 615 2
614 615 616 2
615 616 617 2
616 617 618 2
619 620 621 2
620 621 622 2
621 622 623 2
622 623 624 2
625 626 627 2
626 627 628 2
627 628 629 2
628 629 630 2
631 632 633 2
632 633 634 2
633 634 635 2
634 635 636 2
637 638 639 2
638 639 640 2
639 640 641 2
640 641 642 2
643 644 645 2
644 645 646 2
645 646 647 2
646 647 648 2
649 650 651 2
650 651 652 2
651 652 653 2
652 653 654 2
655 656 657 2
656 657 658 2
657 658 659 2
658 659 660 2
661 662 663 2
662 663 664 2
663 664 665 2
664 665 666 2
667 668 669 2
668 669 670 2
669 670 671 2
670 671 672 2
673 674 675 2
674 675 676 2
675 676 677 2
676 677 678 2
679 680 681 2
680 681 682 2
681 682 683 2
682 683 684 2
685 686 687 2
686 687 688 2
687 688 689 2
688 689 690 2
691 692 693 2
692 693 694 2
693 694 695 2
694 695 696 2
697 698 699 2
698 699 700 2
699 700 701 2
700 701 702 2
703 704 705 2
704 705 706 2
705 706 707 2
706 707 708 2
709 710 711 2
710 711 712 2
711 712 713 2
712 713 714 2
715 716 717 2
716 717 718 2
717 718 719 2
718 719 720 2
721 722 723 2
722 723 724 2
723 724 725 2
724 725 726 2
727 728 729 2
728 729 730 2
729 730 731 2
730 731 732 2
733 734 735 2
734 735 736 2
735 736 737 2
736 737 738 2
739 740 741 2
740 741 742 2
741 742 743 2
742 743 744 2
745 746 747 2
746 747 748 2
747 748 749 2
748 749 750 2
751 752 753 2
752 753 754 2
753 754 755 2
754 755 756 2

[ dihedrals ]

[ pairs ]
;from 1-4 pair
