[ moleculetype ]
polyGraft            1

[ atoms ]
1 CM2 1 PE C1 1 0.000
2 CM2 1 PE C2 1 0.000
3 CM2 1 PE C3 1 0.000
4 CM2 1 PE C4 1 0.000
5 CM2 1 PE C5 1 0.000
6 CM2 1 PE C6 1 0.000
7 CM2 1 PE C1 1 0.000
8 CM2 1 PE C2 1 0.000
9 CM2 1 PE C3 1 0.000
10 CM2 1 PE C4 1 0.000
11 CM2 1 PE C5 1 0.000
12 CM2 1 PE C6 1 0.000
13 CM2 1 PE C1 1 0.000
14 CM2 1 PE C2 1 0.000
15 CM2 1 PE C3 1 0.000
16 CM2 1 PE C4 1 0.000
17 CM2 1 PE C5 1 0.000
18 CM2 1 PE C6 1 0.000
19 SN4e 1 PEO EO1 1 0.000
20 SN4e 1 PEO EO2 1 0.000
21 SN4e 1 PEO EO3 1 0.000
22 SN4e 1 PEO EO4 1 0.000
23 SN4e 1 PEO EO5 1 0.000
24 SN4e 1 PEO EO6 1 0.000
25 CM2 1 PE C1 1 0.000
26 CM2 1 PE C2 1 0.000
27 CM2 1 PE C3 1 0.000
28 CM2 1 PE C4 1 0.000
29 CM2 1 PE C5 1 0.000
30 CM2 1 PE C6 1 0.000
31 SN4e 1 PEO EO1 1 0.000
32 SN4e 1 PEO EO2 1 0.000
33 SN4e 1 PEO EO3 1 0.000
34 SN4e 1 PEO EO4 1 0.000
35 SN4e 1 PEO EO5 1 0.000
36 SN4e 1 PEO EO6 1 0.000
37 CM2 1 PE C1 1 0.000
38 CM2 1 PE C2 1 0.000
39 CM2 1 PE C3 1 0.000
40 CM2 1 PE C4 1 0.000
41 CM2 1 PE C5 1 0.000
42 CM2 1 PE C6 1 0.000
43 SN4e 1 PEO EO1 1 0.000
44 SN4e 1 PEO EO2 1 0.000
45 SN4e 1 PEO EO3 1 0.000
46 SN4e 1 PEO EO4 1 0.000
47 SN4e 1 PEO EO5 1 0.000
48 SN4e 1 PEO EO6 1 0.000
49 SN4e 1 PEO EO1 1 0.000
50 SN4e 1 PEO EO2 1 0.000
51 SN4e 1 PEO EO3 1 0.000
52 SN4e 1 PEO EO4 1 0.000
53 SN4e 1 PEO EO5 1 0.000
54 SN4e 1 PEO EO6 1 0.000
55 SN4e 1 PEO EO1 1 0.000
56 SN4e 1 PEO EO2 1 0.000
57 SN4e 1 PEO EO3 1 0.000
58 SN4e 1 PEO EO4 1 0.000
59 SN4e 1 PEO EO5 1 0.000
60 SN4e 1 PEO EO6 1 0.000
61 CM2 1 PE C1 1 0.000
62 CM2 1 PE C2 1 0.000
63 CM2 1 PE C3 1 0.000
64 CM2 1 PE C4 1 0.000
65 CM2 1 PE C5 1 0.000
66 CM2 1 PE C6 1 0.000
67 CM2 1 PE C1 1 0.000
68 CM2 1 PE C2 1 0.000
69 CM2 1 PE C3 1 0.000
70 CM2 1 PE C4 1 0.000
71 CM2 1 PE C5 1 0.000
72 CM2 1 PE C6 1 0.000
73 CM2 1 PE C1 1 0.000
74 CM2 1 PE C2 1 0.000
75 CM2 1 PE C3 1 0.000
76 CM2 1 PE C4 1 0.000
77 CM2 1 PE C5 1 0.000
78 CM2 1 PE C6 1 0.000
79 CM2 1 PE C1 1 0.000
80 CM2 1 PE C2 1 0.000
81 CM2 1 PE C3 1 0.000
82 CM2 1 PE C4 1 0.000
83 CM2 1 PE C5 1 0.000
84 CM2 1 PE C6 1 0.000
85 SN4e 1 PEO EO1 1 0.000
86 SN4e 1 PEO EO2 1 0.000
87 SN4e 1 PEO EO3 1 0.000
88 SN4e 1 PEO EO4 1 0.000
89 SN4e 1 PEO EO5 1 0.000
90 SN4e 1 PEO EO6 1 0.000
91 SN4e 1 PEO EO1 1 0.000
92 SN4e 1 PEO EO2 1 0.000
93 SN4e 1 PEO EO3 1 0.000
94 SN4e 1 PEO EO4 1 0.000
95 SN4e 1 PEO EO5 1 0.000
96 SN4e 1 PEO EO6 1 0.000
97 SN4e 1 PEO EO1 1 0.000
98 SN4e 1 PEO EO2 1 0.000
99 SN4e 1 PEO EO3 1 0.000
100 SN4e 1 PEO EO4 1 0.000
101 SN4e 1 PEO EO5 1 0.000
102 SN4e 1 PEO EO6 1 0.000
103 CM2 1 PE C1 1 0.000
104 CM2 1 PE C2 1 0.000
105 CM2 1 PE C3 1 0.000
106 CM2 1 PE C4 1 0.000
107 CM2 1 PE C5 1 0.000
108 CM2 1 PE C6 1 0.000
109 CM2 1 PE C1 1 0.000
110 CM2 1 PE C2 1 0.000
111 CM2 1 PE C3 1 0.000
112 CM2 1 PE C4 1 0.000
113 CM2 1 PE C5 1 0.000
114 CM2 1 PE C6 1 0.000
115 CM2 1 PE C1 1 0.000
116 CM2 1 PE C2 1 0.000
117 CM2 1 PE C3 1 0.000
118 CM2 1 PE C4 1 0.000
119 CM2 1 PE C5 1 0.000
120 CM2 1 PE C6 1 0.000
121 CM2 1 PE C1 1 0.000
122 CM2 1 PE C2 1 0.000
123 CM2 1 PE C3 1 0.000
124 CM2 1 PE C4 1 0.000
125 CM2 1 PE C5 1 0.000
126 CM2 1 PE C6 1 0.000
127 SN4e 1 PEO EO1 1 0.000
128 SN4e 1 PEO EO2 1 0.000
129 SN4e 1 PEO EO3 1 0.000
130 SN4e 1 PEO EO4 1 0.000
131 SN4e 1 PEO EO5 1 0.000
132 SN4e 1 PEO EO6 1 0.000
133 SN4e 1 PEO EO1 1 0.000
134 SN4e 1 PEO EO2 1 0.000
135 SN4e 1 PEO EO3 1 0.000
136 SN4e 1 PEO EO4 1 0.000
137 SN4e 1 PEO EO5 1 0.000
138 SN4e 1 PEO EO6 1 0.000
139 CM2 1 PE C1 1 0.000
140 CM2 1 PE C2 1 0.000
141 CM2 1 PE C3 1 0.000
142 CM2 1 PE C4 1 0.000
143 CM2 1 PE C5 1 0.000
144 CM2 1 PE C6 1 0.000
145 CM2 1 PE C1 1 0.000
146 CM2 1 PE C2 1 0.000
147 CM2 1 PE C3 1 0.000
148 CM2 1 PE C4 1 0.000
149 CM2 1 PE C5 1 0.000
150 CM2 1 PE C6 1 0.000
;sub
151 Au 0 LAT Au 0 0.000 196.96654
152 Au 0 LAT Au 0 0.000 196.96654
153 Au 0 LAT Au 0 0.000 196.96654
154 Au 0 LAT Au 0 0.000 196.96654
155 Au 0 LAT Au 0 0.000 196.96654
156 Au 0 LAT Au 0 0.000 196.96654
157 Au 0 LAT Au 0 0.000 196.96654
158 Au 0 LAT Au 0 0.000 196.96654
159 Au 0 LAT Au 0 0.000 196.96654
160 Au 0 LAT Au 0 0.000 196.96654
161 Au 0 LAT Au 0 0.000 196.96654
162 Au 0 LAT Au 0 0.000 196.96654
163 Au 0 LAT Au 0 0.000 196.96654
164 Au 0 LAT Au 0 0.000 196.96654
165 Au 0 LAT Au 0 0.000 196.96654
166 Au 0 LAT Au 0 0.000 196.96654
167 Au 0 LAT Au 0 0.000 196.96654
168 Au 0 LAT Au 0 0.000 196.96654
169 Au 0 LAT Au 0 0.000 196.96654
170 Au 0 LAT Au 0 0.000 196.96654
171 Au 0 LAT Au 0 0.000 196.96654
172 Au 0 LAT Au 0 0.000 196.96654
173 Au 0 LAT Au 0 0.000 196.96654
174 Au 0 LAT Au 0 0.000 196.96654
175 Au 0 LAT Au 0 0.000 196.96654
176 Au 0 LAT Au 0 0.000 196.96654
177 Au 0 LAT Au 0 0.000 196.96654
178 Au 0 LAT Au 0 0.000 196.96654
179 Au 0 LAT Au 0 0.000 196.96654
180 Au 0 LAT Au 0 0.000 196.96654
181 Au 0 LAT Au 0 0.000 196.96654
182 Au 0 LAT Au 0 0.000 196.96654
183 Au 0 LAT Au 0 0.000 196.96654
184 Au 0 LAT Au 0 0.000 196.96654
185 Au 0 LAT Au 0 0.000 196.96654
186 Au 0 LAT Au 0 0.000 196.96654
187 Au 0 LAT Au 0 0.000 196.96654
188 Au 0 LAT Au 0 0.000 196.96654
189 Au 0 LAT Au 0 0.000 196.96654
190 Au 0 LAT Au 0 0.000 196.96654
191 Au 0 LAT Au 0 0.000 196.96654
192 Au 0 LAT Au 0 0.000 196.96654
193 Au 0 LAT Au 0 0.000 196.96654
194 Au 0 LAT Au 0 0.000 196.96654
195 Au 0 LAT Au 0 0.000 196.96654
196 Au 0 LAT Au 0 0.000 196.96654
197 Au 0 LAT Au 0 0.000 196.96654
198 Au 0 LAT Au 0 0.000 196.96654
199 Au 0 LAT Au 0 0.000 196.96654
200 Au 0 LAT Au 0 0.000 196.96654
201 Au 0 LAT Au 0 0.000 196.96654
202 Au 0 LAT Au 0 0.000 196.96654
203 Au 0 LAT Au 0 0.000 196.96654
204 Au 0 LAT Au 0 0.000 196.96654
205 Au 0 LAT Au 0 0.000 196.96654
206 Au 0 LAT Au 0 0.000 196.96654
207 Au 0 LAT Au 0 0.000 196.96654
208 Au 0 LAT Au 0 0.000 196.96654
209 Au 0 LAT Au 0 0.000 196.96654
210 Au 0 LAT Au 0 0.000 196.96654
211 Au 0 LAT Au 0 0.000 196.96654
212 Au 0 LAT Au 0 0.000 196.96654
213 Au 0 LAT Au 0 0.000 196.96654
214 Au 0 LAT Au 0 0.000 196.96654
215 Au 0 LAT Au 0 0.000 196.96654
216 Au 0 LAT Au 0 0.000 196.96654
217 Au 0 LAT Au 0 0.000 196.96654
218 Au 0 LAT Au 0 0.000 196.96654
219 Au 0 LAT Au 0 0.000 196.96654
220 Au 0 LAT Au 0 0.000 196.96654
221 Au 0 LAT Au 0 0.000 196.96654
222 Au 0 LAT Au 0 0.000 196.96654
223 Au 0 LAT Au 0 0.000 196.96654
224 Au 0 LAT Au 0 0.000 196.96654
225 Au 0 LAT Au 0 0.000 196.96654
226 Au 0 LAT Au 0 0.000 196.96654
227 Au 0 LAT Au 0 0.000 196.96654
228 Au 0 LAT Au 0 0.000 196.96654
229 Au 0 LAT Au 0 0.000 196.96654
230 Au 0 LAT Au 0 0.000 196.96654
231 Au 0 LAT Au 0 0.000 196.96654
232 Au 0 LAT Au 0 0.000 196.96654
233 Au 0 LAT Au 0 0.000 196.96654
234 Au 0 LAT Au 0 0.000 196.96654
235 Au 0 LAT Au 0 0.000 196.96654
236 Au 0 LAT Au 0 0.000 196.96654
237 Au 0 LAT Au 0 0.000 196.96654
238 Au 0 LAT Au 0 0.000 196.96654
239 Au 0 LAT Au 0 0.000 196.96654
240 Au 0 LAT Au 0 0.000 196.96654
241 Au 0 LAT Au 0 0.000 196.96654
242 Au 0 LAT Au 0 0.000 196.96654
243 Au 0 LAT Au 0 0.000 196.96654
244 Au 0 LAT Au 0 0.000 196.96654
245 Au 0 LAT Au 0 0.000 196.96654
246 Au 0 LAT Au 0 0.000 196.96654
247 Au 0 LAT Au 0 0.000 196.96654
248 Au 0 LAT Au 0 0.000 196.96654
249 Au 0 LAT Au 0 0.000 196.96654
250 Au 0 LAT Au 0 0.000 196.96654
251 Au 0 LAT Au 0 0.000 196.96654
252 Au 0 LAT Au 0 0.000 196.96654
253 Au 0 LAT Au 0 0.000 196.96654
254 Au 0 LAT Au 0 0.000 196.96654
255 Au 0 LAT Au 0 0.000 196.96654
256 Au 0 LAT Au 0 0.000 196.96654
257 Au 0 LAT Au 0 0.000 196.96654
258 Au 0 LAT Au 0 0.000 196.96654
259 Au 0 LAT Au 0 0.000 196.96654
260 Au 0 LAT Au 0 0.000 196.96654
261 Au 0 LAT Au 0 0.000 196.96654
262 Au 0 LAT Au 0 0.000 196.96654
263 Au 0 LAT Au 0 0.000 196.96654
264 Au 0 LAT Au 0 0.000 196.96654
265 Au 0 LAT Au 0 0.000 196.96654
266 Au 0 LAT Au 0 0.000 196.96654
267 Au 0 LAT Au 0 0.000 196.96654
268 Au 0 LAT Au 0 0.000 196.96654
269 Au 0 LAT Au 0 0.000 196.96654
270 Au 0 LAT Au 0 0.000 196.96654
271 Au 0 LAT Au 0 0.000 196.96654
272 Au 0 LAT Au 0 0.000 196.96654
273 Au 0 LAT Au 0 0.000 196.96654
274 Au 0 LAT Au 0 0.000 196.96654
275 Au 0 LAT Au 0 0.000 196.96654
276 Au 0 LAT Au 0 0.000 196.96654
277 Au 0 LAT Au 0 0.000 196.96654
278 Au 0 LAT Au 0 0.000 196.96654
279 Au 0 LAT Au 0 0.000 196.96654
280 Au 0 LAT Au 0 0.000 196.96654
281 Au 0 LAT Au 0 0.000 196.96654
282 Au 0 LAT Au 0 0.000 196.96654
283 Au 0 LAT Au 0 0.000 196.96654
284 Au 0 LAT Au 0 0.000 196.96654
285 Au 0 LAT Au 0 0.000 196.96654
286 Au 0 LAT Au 0 0.000 196.96654
287 Au 0 LAT Au 0 0.000 196.96654
288 Au 0 LAT Au 0 0.000 196.96654
289 Au 0 LAT Au 0 0.000 196.96654
290 Au 0 LAT Au 0 0.000 196.96654
291 Au 0 LAT Au 0 0.000 196.96654
292 Au 0 LAT Au 0 0.000 196.96654
293 Au 0 LAT Au 0 0.000 196.96654
294 Au 0 LAT Au 0 0.000 196.96654
295 Au 0 LAT Au 0 0.000 196.96654
296 Au 0 LAT Au 0 0.000 196.96654
297 Au 0 LAT Au 0 0.000 196.96654
298 Au 0 LAT Au 0 0.000 196.96654
299 Au 0 LAT Au 0 0.000 196.96654
300 Au 0 LAT Au 0 0.000 196.96654
301 Au 0 LAT Au 0 0.000 196.96654
302 Au 0 LAT Au 0 0.000 196.96654
303 Au 0 LAT Au 0 0.000 196.96654
304 Au 0 LAT Au 0 0.000 196.96654
305 Au 0 LAT Au 0 0.000 196.96654
306 Au 0 LAT Au 0 0.000 196.96654
307 Au 0 LAT Au 0 0.000 196.96654
308 Au 0 LAT Au 0 0.000 196.96654
309 Au 0 LAT Au 0 0.000 196.96654
310 Au 0 LAT Au 0 0.000 196.96654
311 Au 0 LAT Au 0 0.000 196.96654
312 Au 0 LAT Au 0 0.000 196.96654
313 Au 0 LAT Au 0 0.000 196.96654
314 Au 0 LAT Au 0 0.000 196.96654
315 Au 0 LAT Au 0 0.000 196.96654
316 Au 0 LAT Au 0 0.000 196.96654
317 Au 0 LAT Au 0 0.000 196.96654
318 Au 0 LAT Au 0 0.000 196.96654
319 Au 0 LAT Au 0 0.000 196.96654
320 Au 0 LAT Au 0 0.000 196.96654
321 Au 0 LAT Au 0 0.000 196.96654
322 Au 0 LAT Au 0 0.000 196.96654
323 Au 0 LAT Au 0 0.000 196.96654
324 Au 0 LAT Au 0 0.000 196.96654
325 Au 0 LAT Au 0 0.000 196.96654
326 Au 0 LAT Au 0 0.000 196.96654
327 Au 0 LAT Au 0 0.000 196.96654
328 Au 0 LAT Au 0 0.000 196.96654
329 Au 0 LAT Au 0 0.000 196.96654
330 Au 0 LAT Au 0 0.000 196.96654
331 Au 0 LAT Au 0 0.000 196.96654
332 Au 0 LAT Au 0 0.000 196.96654
333 Au 0 LAT Au 0 0.000 196.96654
334 Au 0 LAT Au 0 0.000 196.96654
335 Au 0 LAT Au 0 0.000 196.96654
336 Au 0 LAT Au 0 0.000 196.96654
337 Au 0 LAT Au 0 0.000 196.96654
338 Au 0 LAT Au 0 0.000 196.96654
339 Au 0 LAT Au 0 0.000 196.96654
340 Au 0 LAT Au 0 0.000 196.96654
341 Au 0 LAT Au 0 0.000 196.96654
342 Au 0 LAT Au 0 0.000 196.96654
343 Au 0 LAT Au 0 0.000 196.96654
344 Au 0 LAT Au 0 0.000 196.96654
345 Au 0 LAT Au 0 0.000 196.96654
346 Au 0 LAT Au 0 0.000 196.96654
347 Au 0 LAT Au 0 0.000 196.96654
348 Au 0 LAT Au 0 0.000 196.96654
349 Au 0 LAT Au 0 0.000 196.96654
350 Au 0 LAT Au 0 0.000 196.96654
351 Au 0 LAT Au 0 0.000 196.96654
352 Au 0 LAT Au 0 0.000 196.96654
353 Au 0 LAT Au 0 0.000 196.96654
354 Au 0 LAT Au 0 0.000 196.96654
355 Au 0 LAT Au 0 0.000 196.96654
356 Au 0 LAT Au 0 0.000 196.96654
357 Au 0 LAT Au 0 0.000 196.96654
358 Au 0 LAT Au 0 0.000 196.96654
359 Au 0 LAT Au 0 0.000 196.96654
360 Au 0 LAT Au 0 0.000 196.96654
361 Au 0 LAT Au 0 0.000 196.96654
362 Au 0 LAT Au 0 0.000 196.96654
363 Au 0 LAT Au 0 0.000 196.96654
364 Au 0 LAT Au 0 0.000 196.96654
365 Au 0 LAT Au 0 0.000 196.96654
366 Au 0 LAT Au 0 0.000 196.96654
367 Au 0 LAT Au 0 0.000 196.96654
368 Au 0 LAT Au 0 0.000 196.96654
369 Au 0 LAT Au 0 0.000 196.96654
370 Au 0 LAT Au 0 0.000 196.96654
371 Au 0 LAT Au 0 0.000 196.96654
372 Au 0 LAT Au 0 0.000 196.96654
373 Au 0 LAT Au 0 0.000 196.96654
374 Au 0 LAT Au 0 0.000 196.96654
375 Au 0 LAT Au 0 0.000 196.96654
376 Au 0 LAT Au 0 0.000 196.96654
377 Au 0 LAT Au 0 0.000 196.96654
378 Au 0 LAT Au 0 0.000 196.96654
379 Au 0 LAT Au 0 0.000 196.96654
380 Au 0 LAT Au 0 0.000 196.96654
381 Au 0 LAT Au 0 0.000 196.96654
382 Au 0 LAT Au 0 0.000 196.96654
383 Au 0 LAT Au 0 0.000 196.96654
384 Au 0 LAT Au 0 0.000 196.96654
385 Au 0 LAT Au 0 0.000 196.96654
386 Au 0 LAT Au 0 0.000 196.96654
387 Au 0 LAT Au 0 0.000 196.96654
388 Au 0 LAT Au 0 0.000 196.96654
389 Au 0 LAT Au 0 0.000 196.96654
390 Au 0 LAT Au 0 0.000 196.96654
391 Au 0 LAT Au 0 0.000 196.96654
392 Au 0 LAT Au 0 0.000 196.96654
393 Au 0 LAT Au 0 0.000 196.96654
394 Au 0 LAT Au 0 0.000 196.96654
395 Au 0 LAT Au 0 0.000 196.96654
396 Au 0 LAT Au 0 0.000 196.96654
397 Au 0 LAT Au 0 0.000 196.96654
398 Au 0 LAT Au 0 0.000 196.96654
399 Au 0 LAT Au 0 0.000 196.96654
400 Au 0 LAT Au 0 0.000 196.96654
401 Au 0 LAT Au 0 0.000 196.96654
402 Au 0 LAT Au 0 0.000 196.96654
403 Au 0 LAT Au 0 0.000 196.96654
404 Au 0 LAT Au 0 0.000 196.96654
405 Au 0 LAT Au 0 0.000 196.96654
406 Au 0 LAT Au 0 0.000 196.96654
407 Au 0 LAT Au 0 0.000 196.96654
408 Au 0 LAT Au 0 0.000 196.96654
409 Au 0 LAT Au 0 0.000 196.96654
410 Au 0 LAT Au 0 0.000 196.96654
411 Au 0 LAT Au 0 0.000 196.96654
412 Au 0 LAT Au 0 0.000 196.96654
413 Au 0 LAT Au 0 0.000 196.96654
414 Au 0 LAT Au 0 0.000 196.96654
415 Au 0 LAT Au 0 0.000 196.96654
416 Au 0 LAT Au 0 0.000 196.96654
417 Au 0 LAT Au 0 0.000 196.96654
418 Au 0 LAT Au 0 0.000 196.96654
419 Au 0 LAT Au 0 0.000 196.96654
420 Au 0 LAT Au 0 0.000 196.96654
421 Au 0 LAT Au 0 0.000 196.96654
422 Au 0 LAT Au 0 0.000 196.96654
423 Au 0 LAT Au 0 0.000 196.96654
424 Au 0 LAT Au 0 0.000 196.96654
425 Au 0 LAT Au 0 0.000 196.96654
426 Au 0 LAT Au 0 0.000 196.96654
427 Au 0 LAT Au 0 0.000 196.96654
428 Au 0 LAT Au 0 0.000 196.96654
429 Au 0 LAT Au 0 0.000 196.96654
430 Au 0 LAT Au 0 0.000 196.96654
431 Au 0 LAT Au 0 0.000 196.96654
432 Au 0 LAT Au 0 0.000 196.96654
433 Au 0 LAT Au 0 0.000 196.96654
434 Au 0 LAT Au 0 0.000 196.96654
435 Au 0 LAT Au 0 0.000 196.96654
436 Au 0 LAT Au 0 0.000 196.96654
437 Au 0 LAT Au 0 0.000 196.96654
438 Au 0 LAT Au 0 0.000 196.96654
439 Au 0 LAT Au 0 0.000 196.96654
440 Au 0 LAT Au 0 0.000 196.96654
441 Au 0 LAT Au 0 0.000 196.96654
442 Au 0 LAT Au 0 0.000 196.96654
443 Au 0 LAT Au 0 0.000 196.96654
444 Au 0 LAT Au 0 0.000 196.96654
445 Au 0 LAT Au 0 0.000 196.96654
446 Au 0 LAT Au 0 0.000 196.96654
447 Au 0 LAT Au 0 0.000 196.96654
448 Au 0 LAT Au 0 0.000 196.96654
449 Au 0 LAT Au 0 0.000 196.96654
450 Au 0 LAT Au 0 0.000 196.96654
451 Au 0 LAT Au 0 0.000 196.96654
452 Au 0 LAT Au 0 0.000 196.96654
453 Au 0 LAT Au 0 0.000 196.96654
454 Au 0 LAT Au 0 0.000 196.96654
455 Au 0 LAT Au 0 0.000 196.96654
456 Au 0 LAT Au 0 0.000 196.96654
457 Au 0 LAT Au 0 0.000 196.96654
458 Au 0 LAT Au 0 0.000 196.96654
459 Au 0 LAT Au 0 0.000 196.96654
460 Au 0 LAT Au 0 0.000 196.96654
461 Au 0 LAT Au 0 0.000 196.96654
462 Au 0 LAT Au 0 0.000 196.96654
463 Au 0 LAT Au 0 0.000 196.96654
464 Au 0 LAT Au 0 0.000 196.96654
465 Au 0 LAT Au 0 0.000 196.96654
466 Au 0 LAT Au 0 0.000 196.96654
467 Au 0 LAT Au 0 0.000 196.96654
468 Au 0 LAT Au 0 0.000 196.96654
469 Au 0 LAT Au 0 0.000 196.96654
470 Au 0 LAT Au 0 0.000 196.96654
471 Au 0 LAT Au 0 0.000 196.96654
472 Au 0 LAT Au 0 0.000 196.96654
473 Au 0 LAT Au 0 0.000 196.96654
474 Au 0 LAT Au 0 0.000 196.96654
475 Au 0 LAT Au 0 0.000 196.96654
476 Au 0 LAT Au 0 0.000 196.96654
477 Au 0 LAT Au 0 0.000 196.96654
478 Au 0 LAT Au 0 0.000 196.96654
479 Au 0 LAT Au 0 0.000 196.96654
480 Au 0 LAT Au 0 0.000 196.96654
481 Au 0 LAT Au 0 0.000 196.96654
482 Au 0 LAT Au 0 0.000 196.96654
483 Au 0 LAT Au 0 0.000 196.96654
484 Au 0 LAT Au 0 0.000 196.96654
485 Au 0 LAT Au 0 0.000 196.96654
486 Au 0 LAT Au 0 0.000 196.96654
487 Au 0 LAT Au 0 0.000 196.96654
488 Au 0 LAT Au 0 0.000 196.96654
489 Au 0 LAT Au 0 0.000 196.96654
490 Au 0 LAT Au 0 0.000 196.96654
491 Au 0 LAT Au 0 0.000 196.96654
492 Au 0 LAT Au 0 0.000 196.96654
493 Au 0 LAT Au 0 0.000 196.96654
494 Au 0 LAT Au 0 0.000 196.96654
495 Au 0 LAT Au 0 0.000 196.96654
496 Au 0 LAT Au 0 0.000 196.96654
497 Au 0 LAT Au 0 0.000 196.96654
498 Au 0 LAT Au 0 0.000 196.96654
499 Au 0 LAT Au 0 0.000 196.96654
500 Au 0 LAT Au 0 0.000 196.96654
501 Au 0 LAT Au 0 0.000 196.96654
502 Au 0 LAT Au 0 0.000 196.96654
503 Au 0 LAT Au 0 0.000 196.96654
504 Au 0 LAT Au 0 0.000 196.96654
505 Au 0 LAT Au 0 0.000 196.96654
506 Au 0 LAT Au 0 0.000 196.96654
507 Au 0 LAT Au 0 0.000 196.96654
508 Au 0 LAT Au 0 0.000 196.96654
509 Au 0 LAT Au 0 0.000 196.96654
510 Au 0 LAT Au 0 0.000 196.96654
511 Au 0 LAT Au 0 0.000 196.96654
512 Au 0 LAT Au 0 0.000 196.96654
513 Au 0 LAT Au 0 0.000 196.96654
514 Au 0 LAT Au 0 0.000 196.96654
515 Au 0 LAT Au 0 0.000 196.96654
516 Au 0 LAT Au 0 0.000 196.96654
517 Au 0 LAT Au 0 0.000 196.96654
518 Au 0 LAT Au 0 0.000 196.96654
519 Au 0 LAT Au 0 0.000 196.96654
520 Au 0 LAT Au 0 0.000 196.96654
521 Au 0 LAT Au 0 0.000 196.96654
522 Au 0 LAT Au 0 0.000 196.96654
523 Au 0 LAT Au 0 0.000 196.96654
524 Au 0 LAT Au 0 0.000 196.96654
525 Au 0 LAT Au 0 0.000 196.96654
526 Au 0 LAT Au 0 0.000 196.96654
527 Au 0 LAT Au 0 0.000 196.96654
528 Au 0 LAT Au 0 0.000 196.96654
529 Au 0 LAT Au 0 0.000 196.96654
530 Au 0 LAT Au 0 0.000 196.96654
531 Au 0 LAT Au 0 0.000 196.96654
532 Au 0 LAT Au 0 0.000 196.96654
533 Au 0 LAT Au 0 0.000 196.96654
534 Au 0 LAT Au 0 0.000 196.96654
535 Au 0 LAT Au 0 0.000 196.96654
536 Au 0 LAT Au 0 0.000 196.96654
537 Au 0 LAT Au 0 0.000 196.96654
538 Au 0 LAT Au 0 0.000 196.96654
539 Au 0 LAT Au 0 0.000 196.96654
540 Au 0 LAT Au 0 0.000 196.96654
541 Au 0 LAT Au 0 0.000 196.96654
542 Au 0 LAT Au 0 0.000 196.96654
543 Au 0 LAT Au 0 0.000 196.96654
544 Au 0 LAT Au 0 0.000 196.96654
545 Au 0 LAT Au 0 0.000 196.96654
546 Au 0 LAT Au 0 0.000 196.96654
547 Au 0 LAT Au 0 0.000 196.96654
548 Au 0 LAT Au 0 0.000 196.96654
549 Au 0 LAT Au 0 0.000 196.96654
550 Au 0 LAT Au 0 0.000 196.96654
551 Au 0 LAT Au 0 0.000 196.96654
552 Au 0 LAT Au 0 0.000 196.96654
553 Au 0 LAT Au 0 0.000 196.96654
554 Au 0 LAT Au 0 0.000 196.96654
555 Au 0 LAT Au 0 0.000 196.96654
556 Au 0 LAT Au 0 0.000 196.96654
557 Au 0 LAT Au 0 0.000 196.96654
558 Au 0 LAT Au 0 0.000 196.96654
559 Au 0 LAT Au 0 0.000 196.96654
560 Au 0 LAT Au 0 0.000 196.96654
561 Au 0 LAT Au 0 0.000 196.96654
562 Au 0 LAT Au 0 0.000 196.96654
563 Au 0 LAT Au 0 0.000 196.96654
564 Au 0 LAT Au 0 0.000 196.96654
565 Au 0 LAT Au 0 0.000 196.96654
566 Au 0 LAT Au 0 0.000 196.96654
567 Au 0 LAT Au 0 0.000 196.96654
568 Au 0 LAT Au 0 0.000 196.96654
569 Au 0 LAT Au 0 0.000 196.96654
570 Au 0 LAT Au 0 0.000 196.96654
571 Au 0 LAT Au 0 0.000 196.96654
572 Au 0 LAT Au 0 0.000 196.96654
573 Au 0 LAT Au 0 0.000 196.96654
574 Au 0 LAT Au 0 0.000 196.96654
575 Au 0 LAT Au 0 0.000 196.96654
576 Au 0 LAT Au 0 0.000 196.96654
577 Au 0 LAT Au 0 0.000 196.96654
578 Au 0 LAT Au 0 0.000 196.96654
579 Au 0 LAT Au 0 0.000 196.96654
580 Au 0 LAT Au 0 0.000 196.96654
581 Au 0 LAT Au 0 0.000 196.96654
582 Au 0 LAT Au 0 0.000 196.96654
583 Au 0 LAT Au 0 0.000 196.96654
584 Au 0 LAT Au 0 0.000 196.96654
585 Au 0 LAT Au 0 0.000 196.96654
586 Au 0 LAT Au 0 0.000 196.96654
587 Au 0 LAT Au 0 0.000 196.96654
588 Au 0 LAT Au 0 0.000 196.96654
589 Au 0 LAT Au 0 0.000 196.96654
590 Au 0 LAT Au 0 0.000 196.96654
591 Au 0 LAT Au 0 0.000 196.96654
592 Au 0 LAT Au 0 0.000 196.96654
593 Au 0 LAT Au 0 0.000 196.96654
594 Au 0 LAT Au 0 0.000 196.96654
595 Au 0 LAT Au 0 0.000 196.96654
596 Au 0 LAT Au 0 0.000 196.96654
597 Au 0 LAT Au 0 0.000 196.96654
598 Au 0 LAT Au 0 0.000 196.96654
599 Au 0 LAT Au 0 0.000 196.96654
600 Au 0 LAT Au 0 0.000 196.96654
601 Au 0 LAT Au 0 0.000 196.96654
602 Au 0 LAT Au 0 0.000 196.96654
603 Au 0 LAT Au 0 0.000 196.96654
604 Au 0 LAT Au 0 0.000 196.96654
605 Au 0 LAT Au 0 0.000 196.96654
606 Au 0 LAT Au 0 0.000 196.96654
607 Au 0 LAT Au 0 0.000 196.96654
608 Au 0 LAT Au 0 0.000 196.96654
609 Au 0 LAT Au 0 0.000 196.96654
610 Au 0 LAT Au 0 0.000 196.96654
611 Au 0 LAT Au 0 0.000 196.96654
612 Au 0 LAT Au 0 0.000 196.96654
613 Au 0 LAT Au 0 0.000 196.96654
614 Au 0 LAT Au 0 0.000 196.96654
615 Au 0 LAT Au 0 0.000 196.96654
616 Au 0 LAT Au 0 0.000 196.96654
617 Au 0 LAT Au 0 0.000 196.96654
618 Au 0 LAT Au 0 0.000 196.96654
619 Au 0 LAT Au 0 0.000 196.96654
620 Au 0 LAT Au 0 0.000 196.96654
621 Au 0 LAT Au 0 0.000 196.96654
622 Au 0 LAT Au 0 0.000 196.96654
623 Au 0 LAT Au 0 0.000 196.96654
624 Au 0 LAT Au 0 0.000 196.96654
625 Au 0 LAT Au 0 0.000 196.96654
626 Au 0 LAT Au 0 0.000 196.96654
627 Au 0 LAT Au 0 0.000 196.96654
628 Au 0 LAT Au 0 0.000 196.96654
629 Au 0 LAT Au 0 0.000 196.96654
630 Au 0 LAT Au 0 0.000 196.96654
631 Au 0 LAT Au 0 0.000 196.96654
632 Au 0 LAT Au 0 0.000 196.96654
633 Au 0 LAT Au 0 0.000 196.96654
634 Au 0 LAT Au 0 0.000 196.96654
635 Au 0 LAT Au 0 0.000 196.96654
636 Au 0 LAT Au 0 0.000 196.96654
637 Au 0 LAT Au 0 0.000 196.96654
638 Au 0 LAT Au 0 0.000 196.96654
639 Au 0 LAT Au 0 0.000 196.96654
640 Au 0 LAT Au 0 0.000 196.96654
641 Au 0 LAT Au 0 0.000 196.96654
642 Au 0 LAT Au 0 0.000 196.96654
643 Au 0 LAT Au 0 0.000 196.96654
644 Au 0 LAT Au 0 0.000 196.96654
645 Au 0 LAT Au 0 0.000 196.96654
646 Au 0 LAT Au 0 0.000 196.96654
647 Au 0 LAT Au 0 0.000 196.96654
648 Au 0 LAT Au 0 0.000 196.96654
649 Au 0 LAT Au 0 0.000 196.96654
650 Au 0 LAT Au 0 0.000 196.96654
651 Au 0 LAT Au 0 0.000 196.96654
652 Au 0 LAT Au 0 0.000 196.96654
653 Au 0 LAT Au 0 0.000 196.96654
654 Au 0 LAT Au 0 0.000 196.96654
655 Au 0 LAT Au 0 0.000 196.96654
656 Au 0 LAT Au 0 0.000 196.96654
657 Au 0 LAT Au 0 0.000 196.96654
658 Au 0 LAT Au 0 0.000 196.96654
659 Au 0 LAT Au 0 0.000 196.96654
660 Au 0 LAT Au 0 0.000 196.96654
661 Au 0 LAT Au 0 0.000 196.96654
662 Au 0 LAT Au 0 0.000 196.96654
663 Au 0 LAT Au 0 0.000 196.96654
664 Au 0 LAT Au 0 0.000 196.96654
665 Au 0 LAT Au 0 0.000 196.96654
666 Au 0 LAT Au 0 0.000 196.96654
667 Au 0 LAT Au 0 0.000 196.96654
668 Au 0 LAT Au 0 0.000 196.96654
669 Au 0 LAT Au 0 0.000 196.96654
670 Au 0 LAT Au 0 0.000 196.96654
671 Au 0 LAT Au 0 0.000 196.96654
672 Au 0 LAT Au 0 0.000 196.96654
673 Au 0 LAT Au 0 0.000 196.96654
674 Au 0 LAT Au 0 0.000 196.96654
675 Au 0 LAT Au 0 0.000 196.96654
676 Au 0 LAT Au 0 0.000 196.96654
677 Au 0 LAT Au 0 0.000 196.96654
678 Au 0 LAT Au 0 0.000 196.96654
679 Au 0 LAT Au 0 0.000 196.96654
680 Au 0 LAT Au 0 0.000 196.96654
681 Au 0 LAT Au 0 0.000 196.96654
682 Au 0 LAT Au 0 0.000 196.96654
683 Au 0 LAT Au 0 0.000 196.96654
684 Au 0 LAT Au 0 0.000 196.96654
685 Au 0 LAT Au 0 0.000 196.96654
686 Au 0 LAT Au 0 0.000 196.96654
687 Au 0 LAT Au 0 0.000 196.96654
688 Au 0 LAT Au 0 0.000 196.96654
689 Au 0 LAT Au 0 0.000 196.96654
690 Au 0 LAT Au 0 0.000 196.96654
691 Au 0 LAT Au 0 0.000 196.96654
692 Au 0 LAT Au 0 0.000 196.96654
693 Au 0 LAT Au 0 0.000 196.96654
694 Au 0 LAT Au 0 0.000 196.96654
695 Au 0 LAT Au 0 0.000 196.96654
696 Au 0 LAT Au 0 0.000 196.96654
697 Au 0 LAT Au 0 0.000 196.96654
698 Au 0 LAT Au 0 0.000 196.96654
699 Au 0 LAT Au 0 0.000 196.96654
700 Au 0 LAT Au 0 0.000 196.96654
701 Au 0 LAT Au 0 0.000 196.96654
702 Au 0 LAT Au 0 0.000 196.96654
703 Au 0 LAT Au 0 0.000 196.96654
704 Au 0 LAT Au 0 0.000 196.96654
705 Au 0 LAT Au 0 0.000 196.96654
706 Au 0 LAT Au 0 0.000 196.96654
707 Au 0 LAT Au 0 0.000 196.96654
708 Au 0 LAT Au 0 0.000 196.96654
709 Au 0 LAT Au 0 0.000 196.96654
710 Au 0 LAT Au 0 0.000 196.96654
711 Au 0 LAT Au 0 0.000 196.96654
712 Au 0 LAT Au 0 0.000 196.96654
713 Au 0 LAT Au 0 0.000 196.96654
714 Au 0 LAT Au 0 0.000 196.96654
715 Au 0 LAT Au 0 0.000 196.96654
716 Au 0 LAT Au 0 0.000 196.96654
717 Au 0 LAT Au 0 0.000 196.96654
718 Au 0 LAT Au 0 0.000 196.96654
719 Au 0 LAT Au 0 0.000 196.96654
720 Au 0 LAT Au 0 0.000 196.96654
721 Au 0 LAT Au 0 0.000 196.96654
722 Au 0 LAT Au 0 0.000 196.96654
723 Au 0 LAT Au 0 0.000 196.96654
724 Au 0 LAT Au 0 0.000 196.96654
725 Au 0 LAT Au 0 0.000 196.96654
726 Au 0 LAT Au 0 0.000 196.96654
727 Au 0 LAT Au 0 0.000 196.96654
728 Au 0 LAT Au 0 0.000 196.96654
729 Au 0 LAT Au 0 0.000 196.96654
730 Au 0 LAT Au 0 0.000 196.96654
731 Au 0 LAT Au 0 0.000 196.96654
732 Au 0 LAT Au 0 0.000 196.96654
733 Au 0 LAT Au 0 0.000 196.96654
734 Au 0 LAT Au 0 0.000 196.96654
735 Au 0 LAT Au 0 0.000 196.96654
736 Au 0 LAT Au 0 0.000 196.96654
737 Au 0 LAT Au 0 0.000 196.96654
738 Au 0 LAT Au 0 0.000 196.96654
739 Au 0 LAT Au 0 0.000 196.96654
740 Au 0 LAT Au 0 0.000 196.96654
741 Au 0 LAT Au 0 0.000 196.96654
742 Au 0 LAT Au 0 0.000 196.96654
743 Au 0 LAT Au 0 0.000 196.96654
744 Au 0 LAT Au 0 0.000 196.96654
745 Au 0 LAT Au 0 0.000 196.96654
746 Au 0 LAT Au 0 0.000 196.96654
747 Au 0 LAT Au 0 0.000 196.96654
748 Au 0 LAT Au 0 0.000 196.96654
749 Au 0 LAT Au 0 0.000 196.96654
750 Au 0 LAT Au 0 0.000 196.96654
751 Au 0 LAT Au 0 0.000 196.96654
752 Au 0 LAT Au 0 0.000 196.96654
753 Au 0 LAT Au 0 0.000 196.96654
754 Au 0 LAT Au 0 0.000 196.96654
755 Au 0 LAT Au 0 0.000 196.96654
756 Au 0 LAT Au 0 0.000 196.96654
757 Au 0 LAT Au 0 0.000 196.96654
758 Au 0 LAT Au 0 0.000 196.96654
759 Au 0 LAT Au 0 0.000 196.96654
760 Au 0 LAT Au 0 0.000 196.96654
761 Au 0 LAT Au 0 0.000 196.96654
762 Au 0 LAT Au 0 0.000 196.96654
763 Au 0 LAT Au 0 0.000 196.96654
764 Au 0 LAT Au 0 0.000 196.96654
765 Au 0 LAT Au 0 0.000 196.96654
766 Au 0 LAT Au 0 0.000 196.96654
767 Au 0 LAT Au 0 0.000 196.96654
768 Au 0 LAT Au 0 0.000 196.96654
769 Au 0 LAT Au 0 0.000 196.96654
770 Au 0 LAT Au 0 0.000 196.96654
771 Au 0 LAT Au 0 0.000 196.96654
772 Au 0 LAT Au 0 0.000 196.96654
773 Au 0 LAT Au 0 0.000 196.96654
774 Au 0 LAT Au 0 0.000 196.96654
775 Au 0 LAT Au 0 0.000 196.96654
776 Au 0 LAT Au 0 0.000 196.96654
777 Au 0 LAT Au 0 0.000 196.96654
778 Au 0 LAT Au 0 0.000 196.96654
779 Au 0 LAT Au 0 0.000 196.96654
780 Au 0 LAT Au 0 0.000 196.96654
781 Au 0 LAT Au 0 0.000 196.96654
782 Au 0 LAT Au 0 0.000 196.96654
783 Au 0 LAT Au 0 0.000 196.96654
784 Au 0 LAT Au 0 0.000 196.96654
785 Au 0 LAT Au 0 0.000 196.96654
786 Au 0 LAT Au 0 0.000 196.96654
787 Au 0 LAT Au 0 0.000 196.96654
788 Au 0 LAT Au 0 0.000 196.96654
789 Au 0 LAT Au 0 0.000 196.96654
790 Au 0 LAT Au 0 0.000 196.96654
791 Au 0 LAT Au 0 0.000 196.96654
792 Au 0 LAT Au 0 0.000 196.96654
793 Au 0 LAT Au 0 0.000 196.96654
794 Au 0 LAT Au 0 0.000 196.96654
795 Au 0 LAT Au 0 0.000 196.96654
796 Au 0 LAT Au 0 0.000 196.96654
797 Au 0 LAT Au 0 0.000 196.96654
798 Au 0 LAT Au 0 0.000 196.96654
799 Au 0 LAT Au 0 0.000 196.96654
800 Au 0 LAT Au 0 0.000 196.96654
801 Au 0 LAT Au 0 0.000 196.96654
802 Au 0 LAT Au 0 0.000 196.96654
803 Au 0 LAT Au 0 0.000 196.96654
804 Au 0 LAT Au 0 0.000 196.96654
805 Au 0 LAT Au 0 0.000 196.96654
806 Au 0 LAT Au 0 0.000 196.96654
807 Au 0 LAT Au 0 0.000 196.96654
808 Au 0 LAT Au 0 0.000 196.96654
809 Au 0 LAT Au 0 0.000 196.96654
810 Au 0 LAT Au 0 0.000 196.96654
811 Au 0 LAT Au 0 0.000 196.96654
812 Au 0 LAT Au 0 0.000 196.96654
813 Au 0 LAT Au 0 0.000 196.96654
814 Au 0 LAT Au 0 0.000 196.96654
815 Au 0 LAT Au 0 0.000 196.96654
816 Au 0 LAT Au 0 0.000 196.96654
817 Au 0 LAT Au 0 0.000 196.96654
818 Au 0 LAT Au 0 0.000 196.96654
819 Au 0 LAT Au 0 0.000 196.96654
820 Au 0 LAT Au 0 0.000 196.96654
821 Au 0 LAT Au 0 0.000 196.96654
822 Au 0 LAT Au 0 0.000 196.96654
823 Au 0 LAT Au 0 0.000 196.96654
824 Au 0 LAT Au 0 0.000 196.96654
825 Au 0 LAT Au 0 0.000 196.96654
826 Au 0 LAT Au 0 0.000 196.96654
827 Au 0 LAT Au 0 0.000 196.96654
828 Au 0 LAT Au 0 0.000 196.96654
829 Au 0 LAT Au 0 0.000 196.96654
830 Au 0 LAT Au 0 0.000 196.96654
831 Au 0 LAT Au 0 0.000 196.96654
832 Au 0 LAT Au 0 0.000 196.96654
833 Au 0 LAT Au 0 0.000 196.96654
834 Au 0 LAT Au 0 0.000 196.96654
835 Au 0 LAT Au 0 0.000 196.96654
836 Au 0 LAT Au 0 0.000 196.96654
837 Au 0 LAT Au 0 0.000 196.96654
838 Au 0 LAT Au 0 0.000 196.96654
839 Au 0 LAT Au 0 0.000 196.96654
840 Au 0 LAT Au 0 0.000 196.96654
841 Au 0 LAT Au 0 0.000 196.96654
842 Au 0 LAT Au 0 0.000 196.96654
843 Au 0 LAT Au 0 0.000 196.96654
844 Au 0 LAT Au 0 0.000 196.96654
845 Au 0 LAT Au 0 0.000 196.96654
846 Au 0 LAT Au 0 0.000 196.96654
847 Au 0 LAT Au 0 0.000 196.96654
848 Au 0 LAT Au 0 0.000 196.96654
849 Au 0 LAT Au 0 0.000 196.96654
850 Au 0 LAT Au 0 0.000 196.96654
851 Au 0 LAT Au 0 0.000 196.96654
852 Au 0 LAT Au 0 0.000 196.96654
853 Au 0 LAT Au 0 0.000 196.96654
854 Au 0 LAT Au 0 0.000 196.96654
855 Au 0 LAT Au 0 0.000 196.96654
856 Au 0 LAT Au 0 0.000 196.96654
857 Au 0 LAT Au 0 0.000 196.96654
858 Au 0 LAT Au 0 0.000 196.96654
859 Au 0 LAT Au 0 0.000 196.96654
860 Au 0 LAT Au 0 0.000 196.96654
861 Au 0 LAT Au 0 0.000 196.96654
862 Au 0 LAT Au 0 0.000 196.96654
863 Au 0 LAT Au 0 0.000 196.96654
864 Au 0 LAT Au 0 0.000 196.96654
865 Au 0 LAT Au 0 0.000 196.96654
866 Au 0 LAT Au 0 0.000 196.96654
867 Au 0 LAT Au 0 0.000 196.96654
868 Au 0 LAT Au 0 0.000 196.96654
869 Au 0 LAT Au 0 0.000 196.96654
870 Au 0 LAT Au 0 0.000 196.96654
871 Au 0 LAT Au 0 0.000 196.96654
872 Au 0 LAT Au 0 0.000 196.96654
873 Au 0 LAT Au 0 0.000 196.96654
874 Au 0 LAT Au 0 0.000 196.96654
875 Au 0 LAT Au 0 0.000 196.96654
876 Au 0 LAT Au 0 0.000 196.96654
877 Au 0 LAT Au 0 0.000 196.96654
878 Au 0 LAT Au 0 0.000 196.96654
879 Au 0 LAT Au 0 0.000 196.96654
880 Au 0 LAT Au 0 0.000 196.96654
881 Au 0 LAT Au 0 0.000 196.96654
882 Au 0 LAT Au 0 0.000 196.96654
883 Au 0 LAT Au 0 0.000 196.96654
884 Au 0 LAT Au 0 0.000 196.96654
885 Au 0 LAT Au 0 0.000 196.96654
886 Au 0 LAT Au 0 0.000 196.96654
887 Au 0 LAT Au 0 0.000 196.96654
888 Au 0 LAT Au 0 0.000 196.96654
889 Au 0 LAT Au 0 0.000 196.96654
890 Au 0 LAT Au 0 0.000 196.96654
891 Au 0 LAT Au 0 0.000 196.96654
892 Au 0 LAT Au 0 0.000 196.96654
893 Au 0 LAT Au 0 0.000 196.96654
894 Au 0 LAT Au 0 0.000 196.96654
895 Au 0 LAT Au 0 0.000 196.96654
896 Au 0 LAT Au 0 0.000 196.96654
897 Au 0 LAT Au 0 0.000 196.96654
898 Au 0 LAT Au 0 0.000 196.96654
899 Au 0 LAT Au 0 0.000 196.96654
900 Au 0 LAT Au 0 0.000 196.96654
901 Au 0 LAT Au 0 0.000 196.96654
902 Au 0 LAT Au 0 0.000 196.96654
903 Au 0 LAT Au 0 0.000 196.96654
904 Au 0 LAT Au 0 0.000 196.96654
905 Au 0 LAT Au 0 0.000 196.96654
906 Au 0 LAT Au 0 0.000 196.96654
907 Au 0 LAT Au 0 0.000 196.96654
908 Au 0 LAT Au 0 0.000 196.96654
909 Au 0 LAT Au 0 0.000 196.96654
910 Au 0 LAT Au 0 0.000 196.96654
911 Au 0 LAT Au 0 0.000 196.96654
912 Au 0 LAT Au 0 0.000 196.96654
913 Au 0 LAT Au 0 0.000 196.96654
914 Au 0 LAT Au 0 0.000 196.96654
915 Au 0 LAT Au 0 0.000 196.96654
916 Au 0 LAT Au 0 0.000 196.96654
917 Au 0 LAT Au 0 0.000 196.96654
918 Au 0 LAT Au 0 0.000 196.96654
919 Au 0 LAT Au 0 0.000 196.96654
920 Au 0 LAT Au 0 0.000 196.96654
921 Au 0 LAT Au 0 0.000 196.96654
922 Au 0 LAT Au 0 0.000 196.96654
923 Au 0 LAT Au 0 0.000 196.96654
924 Au 0 LAT Au 0 0.000 196.96654
925 Au 0 LAT Au 0 0.000 196.96654
926 Au 0 LAT Au 0 0.000 196.96654
927 Au 0 LAT Au 0 0.000 196.96654
928 Au 0 LAT Au 0 0.000 196.96654
929 Au 0 LAT Au 0 0.000 196.96654
930 Au 0 LAT Au 0 0.000 196.96654
931 Au 0 LAT Au 0 0.000 196.96654
932 Au 0 LAT Au 0 0.000 196.96654
933 Au 0 LAT Au 0 0.000 196.96654
934 Au 0 LAT Au 0 0.000 196.96654
935 Au 0 LAT Au 0 0.000 196.96654
936 Au 0 LAT Au 0 0.000 196.96654
937 Au 0 LAT Au 0 0.000 196.96654
938 Au 0 LAT Au 0 0.000 196.96654
939 Au 0 LAT Au 0 0.000 196.96654
940 Au 0 LAT Au 0 0.000 196.96654
941 Au 0 LAT Au 0 0.000 196.96654
942 Au 0 LAT Au 0 0.000 196.96654
943 Au 0 LAT Au 0 0.000 196.96654
944 Au 0 LAT Au 0 0.000 196.96654
945 Au 0 LAT Au 0 0.000 196.96654
946 Au 0 LAT Au 0 0.000 196.96654
947 Au 0 LAT Au 0 0.000 196.96654
948 Au 0 LAT Au 0 0.000 196.96654
949 Au 0 LAT Au 0 0.000 196.96654
950 Au 0 LAT Au 0 0.000 196.96654
951 Au 0 LAT Au 0 0.000 196.96654
952 Au 0 LAT Au 0 0.000 196.96654
953 Au 0 LAT Au 0 0.000 196.96654
954 Au 0 LAT Au 0 0.000 196.96654
955 Au 0 LAT Au 0 0.000 196.96654
956 Au 0 LAT Au 0 0.000 196.96654
957 Au 0 LAT Au 0 0.000 196.96654
958 Au 0 LAT Au 0 0.000 196.96654
959 Au 0 LAT Au 0 0.000 196.96654
960 Au 0 LAT Au 0 0.000 196.96654
961 Au 0 LAT Au 0 0.000 196.96654
962 Au 0 LAT Au 0 0.000 196.96654
963 Au 0 LAT Au 0 0.000 196.96654
964 Au 0 LAT Au 0 0.000 196.96654
965 Au 0 LAT Au 0 0.000 196.96654
966 Au 0 LAT Au 0 0.000 196.96654
967 Au 0 LAT Au 0 0.000 196.96654
968 Au 0 LAT Au 0 0.000 196.96654
969 Au 0 LAT Au 0 0.000 196.96654
970 Au 0 LAT Au 0 0.000 196.96654
971 Au 0 LAT Au 0 0.000 196.96654
972 Au 0 LAT Au 0 0.000 196.96654
973 Au 0 LAT Au 0 0.000 196.96654
974 Au 0 LAT Au 0 0.000 196.96654
975 Au 0 LAT Au 0 0.000 196.96654
976 Au 0 LAT Au 0 0.000 196.96654
977 Au 0 LAT Au 0 0.000 196.96654
978 Au 0 LAT Au 0 0.000 196.96654
979 Au 0 LAT Au 0 0.000 196.96654
980 Au 0 LAT Au 0 0.000 196.96654
981 Au 0 LAT Au 0 0.000 196.96654
982 Au 0 LAT Au 0 0.000 196.96654
983 Au 0 LAT Au 0 0.000 196.96654
984 Au 0 LAT Au 0 0.000 196.96654
985 Au 0 LAT Au 0 0.000 196.96654
986 Au 0 LAT Au 0 0.000 196.96654
987 Au 0 LAT Au 0 0.000 196.96654
988 Au 0 LAT Au 0 0.000 196.96654
989 Au 0 LAT Au 0 0.000 196.96654
990 Au 0 LAT Au 0 0.000 196.96654
991 Au 0 LAT Au 0 0.000 196.96654
992 Au 0 LAT Au 0 0.000 196.96654
993 Au 0 LAT Au 0 0.000 196.96654
994 Au 0 LAT Au 0 0.000 196.96654
995 Au 0 LAT Au 0 0.000 196.96654
996 Au 0 LAT Au 0 0.000 196.96654
997 Au 0 LAT Au 0 0.000 196.96654
998 Au 0 LAT Au 0 0.000 196.96654
999 Au 0 LAT Au 0 0.000 196.96654
1000 Au 0 LAT Au 0 0.000 196.96654
1001 Au 0 LAT Au 0 0.000 196.96654
1002 Au 0 LAT Au 0 0.000 196.96654
1003 Au 0 LAT Au 0 0.000 196.96654
1004 Au 0 LAT Au 0 0.000 196.96654
1005 Au 0 LAT Au 0 0.000 196.96654
1006 Au 0 LAT Au 0 0.000 196.96654
1007 Au 0 LAT Au 0 0.000 196.96654
1008 Au 0 LAT Au 0 0.000 196.96654
1009 Au 0 LAT Au 0 0.000 196.96654
1010 Au 0 LAT Au 0 0.000 196.96654
1011 Au 0 LAT Au 0 0.000 196.96654
1012 Au 0 LAT Au 0 0.000 196.96654
1013 Au 0 LAT Au 0 0.000 196.96654
1014 Au 0 LAT Au 0 0.000 196.96654
1015 Au 0 LAT Au 0 0.000 196.96654
1016 Au 0 LAT Au 0 0.000 196.96654
1017 Au 0 LAT Au 0 0.000 196.96654
1018 Au 0 LAT Au 0 0.000 196.96654
1019 Au 0 LAT Au 0 0.000 196.96654
1020 Au 0 LAT Au 0 0.000 196.96654
1021 Au 0 LAT Au 0 0.000 196.96654
1022 Au 0 LAT Au 0 0.000 196.96654
1023 Au 0 LAT Au 0 0.000 196.96654
1024 Au 0 LAT Au 0 0.000 196.96654
1025 Au 0 LAT Au 0 0.000 196.96654
1026 Au 0 LAT Au 0 0.000 196.96654
1027 Au 0 LAT Au 0 0.000 196.96654
1028 Au 0 LAT Au 0 0.000 196.96654
1029 Au 0 LAT Au 0 0.000 196.96654
1030 Au 0 LAT Au 0 0.000 196.96654
1031 Au 0 LAT Au 0 0.000 196.96654
1032 Au 0 LAT Au 0 0.000 196.96654
1033 Au 0 LAT Au 0 0.000 196.96654
1034 Au 0 LAT Au 0 0.000 196.96654
1035 Au 0 LAT Au 0 0.000 196.96654
1036 Au 0 LAT Au 0 0.000 196.96654
1037 Au 0 LAT Au 0 0.000 196.96654
1038 Au 0 LAT Au 0 0.000 196.96654
1039 Au 0 LAT Au 0 0.000 196.96654
1040 Au 0 LAT Au 0 0.000 196.96654
1041 Au 0 LAT Au 0 0.000 196.96654
1042 Au 0 LAT Au 0 0.000 196.96654
1043 Au 0 LAT Au 0 0.000 196.96654
1044 Au 0 LAT Au 0 0.000 196.96654
1045 Au 0 LAT Au 0 0.000 196.96654
1046 Au 0 LAT Au 0 0.000 196.96654
1047 Au 0 LAT Au 0 0.000 196.96654
1048 Au 0 LAT Au 0 0.000 196.96654
1049 Au 0 LAT Au 0 0.000 196.96654
1050 Au 0 LAT Au 0 0.000 196.96654
1051 Au 0 LAT Au 0 0.000 196.96654
1052 Au 0 LAT Au 0 0.000 196.96654
1053 Au 0 LAT Au 0 0.000 196.96654
1054 Au 0 LAT Au 0 0.000 196.96654
1055 Au 0 LAT Au 0 0.000 196.96654
1056 Au 0 LAT Au 0 0.000 196.96654
1057 Au 0 LAT Au 0 0.000 196.96654
1058 Au 0 LAT Au 0 0.000 196.96654
1059 Au 0 LAT Au 0 0.000 196.96654
1060 Au 0 LAT Au 0 0.000 196.96654
1061 Au 0 LAT Au 0 0.000 196.96654
1062 Au 0 LAT Au 0 0.000 196.96654
1063 Au 0 LAT Au 0 0.000 196.96654
1064 Au 0 LAT Au 0 0.000 196.96654
1065 Au 0 LAT Au 0 0.000 196.96654
1066 Au 0 LAT Au 0 0.000 196.96654
1067 Au 0 LAT Au 0 0.000 196.96654
1068 Au 0 LAT Au 0 0.000 196.96654
1069 Au 0 LAT Au 0 0.000 196.96654
1070 Au 0 LAT Au 0 0.000 196.96654
1071 Au 0 LAT Au 0 0.000 196.96654
1072 Au 0 LAT Au 0 0.000 196.96654
1073 Au 0 LAT Au 0 0.000 196.96654
1074 Au 0 LAT Au 0 0.000 196.96654
1075 Au 0 LAT Au 0 0.000 196.96654
1076 Au 0 LAT Au 0 0.000 196.96654
1077 Au 0 LAT Au 0 0.000 196.96654
1078 Au 0 LAT Au 0 0.000 196.96654
1079 Au 0 LAT Au 0 0.000 196.96654
1080 Au 0 LAT Au 0 0.000 196.96654
1081 Au 0 LAT Au 0 0.000 196.96654
1082 Au 0 LAT Au 0 0.000 196.96654
1083 Au 0 LAT Au 0 0.000 196.96654
1084 Au 0 LAT Au 0 0.000 196.96654
1085 Au 0 LAT Au 0 0.000 196.96654
1086 Au 0 LAT Au 0 0.000 196.96654
1087 Au 0 LAT Au 0 0.000 196.96654
1088 Au 0 LAT Au 0 0.000 196.96654
1089 Au 0 LAT Au 0 0.000 196.96654
1090 Au 0 LAT Au 0 0.000 196.96654
1091 Au 0 LAT Au 0 0.000 196.96654
1092 Au 0 LAT Au 0 0.000 196.96654
1093 Au 0 LAT Au 0 0.000 196.96654
1094 Au 0 LAT Au 0 0.000 196.96654
1095 Au 0 LAT Au 0 0.000 196.96654
1096 Au 0 LAT Au 0 0.000 196.96654
1097 Au 0 LAT Au 0 0.000 196.96654
1098 Au 0 LAT Au 0 0.000 196.96654
1099 Au 0 LAT Au 0 0.000 196.96654
1100 Au 0 LAT Au 0 0.000 196.96654
1101 Au 0 LAT Au 0 0.000 196.96654
1102 Au 0 LAT Au 0 0.000 196.96654
1103 Au 0 LAT Au 0 0.000 196.96654
1104 Au 0 LAT Au 0 0.000 196.96654
1105 Au 0 LAT Au 0 0.000 196.96654
1106 Au 0 LAT Au 0 0.000 196.96654
1107 Au 0 LAT Au 0 0.000 196.96654
1108 Au 0 LAT Au 0 0.000 196.96654
1109 Au 0 LAT Au 0 0.000 196.96654
1110 Au 0 LAT Au 0 0.000 196.96654
1111 Au 0 LAT Au 0 0.000 196.96654
1112 Au 0 LAT Au 0 0.000 196.96654
1113 Au 0 LAT Au 0 0.000 196.96654
1114 Au 0 LAT Au 0 0.000 196.96654
1115 Au 0 LAT Au 0 0.000 196.96654
1116 Au 0 LAT Au 0 0.000 196.96654
1117 Au 0 LAT Au 0 0.000 196.96654
1118 Au 0 LAT Au 0 0.000 196.96654
1119 Au 0 LAT Au 0 0.000 196.96654
1120 Au 0 LAT Au 0 0.000 196.96654
1121 Au 0 LAT Au 0 0.000 196.96654
1122 Au 0 LAT Au 0 0.000 196.96654
1123 Au 0 LAT Au 0 0.000 196.96654
1124 Au 0 LAT Au 0 0.000 196.96654
1125 Au 0 LAT Au 0 0.000 196.96654
1126 Au 0 LAT Au 0 0.000 196.96654
1127 Au 0 LAT Au 0 0.000 196.96654
1128 Au 0 LAT Au 0 0.000 196.96654
1129 Au 0 LAT Au 0 0.000 196.96654
1130 Au 0 LAT Au 0 0.000 196.96654
1131 Au 0 LAT Au 0 0.000 196.96654
1132 Au 0 LAT Au 0 0.000 196.96654
1133 Au 0 LAT Au 0 0.000 196.96654
1134 Au 0 LAT Au 0 0.000 196.96654
1135 Au 0 LAT Au 0 0.000 196.96654
1136 Au 0 LAT Au 0 0.000 196.96654
1137 Au 0 LAT Au 0 0.000 196.96654
1138 Au 0 LAT Au 0 0.000 196.96654
1139 Au 0 LAT Au 0 0.000 196.96654
1140 Au 0 LAT Au 0 0.000 196.96654
1141 Au 0 LAT Au 0 0.000 196.96654
1142 Au 0 LAT Au 0 0.000 196.96654
1143 Au 0 LAT Au 0 0.000 196.96654
1144 Au 0 LAT Au 0 0.000 196.96654
1145 Au 0 LAT Au 0 0.000 196.96654
1146 Au 0 LAT Au 0 0.000 196.96654
1147 Au 0 LAT Au 0 0.000 196.96654
1148 Au 0 LAT Au 0 0.000 196.96654
1149 Au 0 LAT Au 0 0.000 196.96654
1150 Au 0 LAT Au 0 0.000 196.96654
1151 Au 0 LAT Au 0 0.000 196.96654
1152 Au 0 LAT Au 0 0.000 196.96654
1153 Au 0 LAT Au 0 0.000 196.96654
1154 Au 0 LAT Au 0 0.000 196.96654
1155 Au 0 LAT Au 0 0.000 196.96654
1156 Au 0 LAT Au 0 0.000 196.96654
1157 Au 0 LAT Au 0 0.000 196.96654
1158 Au 0 LAT Au 0 0.000 196.96654
1159 Au 0 LAT Au 0 0.000 196.96654
1160 Au 0 LAT Au 0 0.000 196.96654
1161 Au 0 LAT Au 0 0.000 196.96654
1162 Au 0 LAT Au 0 0.000 196.96654
1163 Au 0 LAT Au 0 0.000 196.96654
1164 Au 0 LAT Au 0 0.000 196.96654
1165 Au 0 LAT Au 0 0.000 196.96654
1166 Au 0 LAT Au 0 0.000 196.96654
1167 Au 0 LAT Au 0 0.000 196.96654
1168 Au 0 LAT Au 0 0.000 196.96654
1169 Au 0 LAT Au 0 0.000 196.96654
1170 Au 0 LAT Au 0 0.000 196.96654
1171 Au 0 LAT Au 0 0.000 196.96654
1172 Au 0 LAT Au 0 0.000 196.96654
1173 Au 0 LAT Au 0 0.000 196.96654
1174 Au 0 LAT Au 0 0.000 196.96654
1175 Au 0 LAT Au 0 0.000 196.96654
1176 Au 0 LAT Au 0 0.000 196.96654
1177 Au 0 LAT Au 0 0.000 196.96654
1178 Au 0 LAT Au 0 0.000 196.96654
1179 Au 0 LAT Au 0 0.000 196.96654
1180 Au 0 LAT Au 0 0.000 196.96654
1181 Au 0 LAT Au 0 0.000 196.96654
1182 Au 0 LAT Au 0 0.000 196.96654
1183 Au 0 LAT Au 0 0.000 196.96654
1184 Au 0 LAT Au 0 0.000 196.96654
1185 Au 0 LAT Au 0 0.000 196.96654
1186 Au 0 LAT Au 0 0.000 196.96654
1187 Au 0 LAT Au 0 0.000 196.96654
1188 Au 0 LAT Au 0 0.000 196.96654
1189 Au 0 LAT Au 0 0.000 196.96654
1190 Au 0 LAT Au 0 0.000 196.96654
1191 Au 0 LAT Au 0 0.000 196.96654
1192 Au 0 LAT Au 0 0.000 196.96654
1193 Au 0 LAT Au 0 0.000 196.96654
1194 Au 0 LAT Au 0 0.000 196.96654
1195 Au 0 LAT Au 0 0.000 196.96654
1196 Au 0 LAT Au 0 0.000 196.96654
1197 Au 0 LAT Au 0 0.000 196.96654
1198 Au 0 LAT Au 0 0.000 196.96654
1199 Au 0 LAT Au 0 0.000 196.96654
1200 Au 0 LAT Au 0 0.000 196.96654
1201 Au 0 LAT Au 0 0.000 196.96654
1202 Au 0 LAT Au 0 0.000 196.96654
1203 Au 0 LAT Au 0 0.000 196.96654
1204 Au 0 LAT Au 0 0.000 196.96654
1205 Au 0 LAT Au 0 0.000 196.96654
1206 Au 0 LAT Au 0 0.000 196.96654
1207 Au 0 LAT Au 0 0.000 196.96654
1208 Au 0 LAT Au 0 0.000 196.96654
1209 Au 0 LAT Au 0 0.000 196.96654
1210 Au 0 LAT Au 0 0.000 196.96654
1211 Au 0 LAT Au 0 0.000 196.96654
1212 Au 0 LAT Au 0 0.000 196.96654
1213 Au 0 LAT Au 0 0.000 196.96654
1214 Au 0 LAT Au 0 0.000 196.96654
1215 Au 0 LAT Au 0 0.000 196.96654
1216 Au 0 LAT Au 0 0.000 196.96654
1217 Au 0 LAT Au 0 0.000 196.96654
1218 Au 0 LAT Au 0 0.000 196.96654
1219 Au 0 LAT Au 0 0.000 196.96654
1220 Au 0 LAT Au 0 0.000 196.96654
1221 Au 0 LAT Au 0 0.000 196.96654
1222 Au 0 LAT Au 0 0.000 196.96654
1223 Au 0 LAT Au 0 0.000 196.96654
1224 Au 0 LAT Au 0 0.000 196.96654
1225 Au 0 LAT Au 0 0.000 196.96654
1226 Au 0 LAT Au 0 0.000 196.96654
1227 Au 0 LAT Au 0 0.000 196.96654
1228 Au 0 LAT Au 0 0.000 196.96654
1229 Au 0 LAT Au 0 0.000 196.96654
1230 Au 0 LAT Au 0 0.000 196.96654
1231 Au 0 LAT Au 0 0.000 196.96654
1232 Au 0 LAT Au 0 0.000 196.96654
1233 Au 0 LAT Au 0 0.000 196.96654
1234 Au 0 LAT Au 0 0.000 196.96654
1235 Au 0 LAT Au 0 0.000 196.96654
1236 Au 0 LAT Au 0 0.000 196.96654
1237 Au 0 LAT Au 0 0.000 196.96654
1238 Au 0 LAT Au 0 0.000 196.96654
1239 Au 0 LAT Au 0 0.000 196.96654
1240 Au 0 LAT Au 0 0.000 196.96654
1241 Au 0 LAT Au 0 0.000 196.96654
1242 Au 0 LAT Au 0 0.000 196.96654
1243 Au 0 LAT Au 0 0.000 196.96654
1244 Au 0 LAT Au 0 0.000 196.96654
1245 Au 0 LAT Au 0 0.000 196.96654
1246 Au 0 LAT Au 0 0.000 196.96654
1247 Au 0 LAT Au 0 0.000 196.96654
1248 Au 0 LAT Au 0 0.000 196.96654
1249 Au 0 LAT Au 0 0.000 196.96654
1250 Au 0 LAT Au 0 0.000 196.96654
1251 Au 0 LAT Au 0 0.000 196.96654
1252 Au 0 LAT Au 0 0.000 196.96654
1253 Au 0 LAT Au 0 0.000 196.96654
1254 Au 0 LAT Au 0 0.000 196.96654
1255 Au 0 LAT Au 0 0.000 196.96654
1256 Au 0 LAT Au 0 0.000 196.96654
1257 Au 0 LAT Au 0 0.000 196.96654
1258 Au 0 LAT Au 0 0.000 196.96654
1259 Au 0 LAT Au 0 0.000 196.96654
1260 Au 0 LAT Au 0 0.000 196.96654
1261 Au 0 LAT Au 0 0.000 196.96654
1262 Au 0 LAT Au 0 0.000 196.96654
1263 Au 0 LAT Au 0 0.000 196.96654
1264 Au 0 LAT Au 0 0.000 196.96654
1265 Au 0 LAT Au 0 0.000 196.96654
1266 Au 0 LAT Au 0 0.000 196.96654
1267 Au 0 LAT Au 0 0.000 196.96654
1268 Au 0 LAT Au 0 0.000 196.96654
1269 Au 0 LAT Au 0 0.000 196.96654
1270 Au 0 LAT Au 0 0.000 196.96654
1271 Au 0 LAT Au 0 0.000 196.96654
1272 Au 0 LAT Au 0 0.000 196.96654
1273 Au 0 LAT Au 0 0.000 196.96654
1274 Au 0 LAT Au 0 0.000 196.96654
1275 Au 0 LAT Au 0 0.000 196.96654
1276 Au 0 LAT Au 0 0.000 196.96654
1277 Au 0 LAT Au 0 0.000 196.96654
1278 Au 0 LAT Au 0 0.000 196.96654
1279 Au 0 LAT Au 0 0.000 196.96654
1280 Au 0 LAT Au 0 0.000 196.96654
1281 Au 0 LAT Au 0 0.000 196.96654
1282 Au 0 LAT Au 0 0.000 196.96654
1283 Au 0 LAT Au 0 0.000 196.96654
1284 Au 0 LAT Au 0 0.000 196.96654
1285 Au 0 LAT Au 0 0.000 196.96654
1286 Au 0 LAT Au 0 0.000 196.96654
1287 Au 0 LAT Au 0 0.000 196.96654
1288 Au 0 LAT Au 0 0.000 196.96654
1289 Au 0 LAT Au 0 0.000 196.96654
1290 Au 0 LAT Au 0 0.000 196.96654
1291 Au 0 LAT Au 0 0.000 196.96654
1292 Au 0 LAT Au 0 0.000 196.96654
1293 Au 0 LAT Au 0 0.000 196.96654
1294 Au 0 LAT Au 0 0.000 196.96654
1295 Au 0 LAT Au 0 0.000 196.96654
1296 Au 0 LAT Au 0 0.000 196.96654
1297 Au 0 LAT Au 0 0.000 196.96654
1298 Au 0 LAT Au 0 0.000 196.96654
1299 Au 0 LAT Au 0 0.000 196.96654
1300 Au 0 LAT Au 0 0.000 196.96654
1301 Au 0 LAT Au 0 0.000 196.96654
1302 Au 0 LAT Au 0 0.000 196.96654

[ bonds ]
1 2 1
2 3 1
3 4 1
4 5 1
5 6 1
7 8 1
8 9 1
9 10 1
10 11 1
11 12 1
13 14 1
14 15 1
15 16 1
16 17 1
17 18 1
19 20 1
20 21 1
21 22 1
22 23 1
23 24 1
25 26 1
26 27 1
27 28 1
28 29 1
29 30 1
31 32 1
32 33 1
33 34 1
34 35 1
35 36 1
37 38 1
38 39 1
39 40 1
40 41 1
41 42 1
43 44 1
44 45 1
45 46 1
46 47 1
47 48 1
49 50 1
50 51 1
51 52 1
52 53 1
53 54 1
55 56 1
56 57 1
57 58 1
58 59 1
59 60 1
61 62 1
62 63 1
63 64 1
64 65 1
65 66 1
67 68 1
68 69 1
69 70 1
70 71 1
71 72 1
73 74 1
74 75 1
75 76 1
76 77 1
77 78 1
79 80 1
80 81 1
81 82 1
82 83 1
83 84 1
85 86 1
86 87 1
87 88 1
88 89 1
89 90 1
91 92 1
92 93 1
93 94 1
94 95 1
95 96 1
97 98 1
98 99 1
99 100 1
100 101 1
101 102 1
103 104 1
104 105 1
105 106 1
106 107 1
107 108 1
109 110 1
110 111 1
111 112 1
112 113 1
113 114 1
115 116 1
116 117 1
117 118 1
118 119 1
119 120 1
121 122 1
122 123 1
123 124 1
124 125 1
125 126 1
127 128 1
128 129 1
129 130 1
130 131 1
131 132 1
133 134 1
134 135 1
135 136 1
136 137 1
137 138 1
139 140 1
140 141 1
141 142 1
142 143 1
143 144 1
145 146 1
146 147 1
147 148 1
148 149 1
149 150 1
;sub-sub
151 152 1
151 153 1
151 154 1
152 153 1
152 154 1
152 155 1
152 157 1
152 199 1
152 202 1
152 203 1
153 154 1
153 199 1
153 202 1
153 727 1
153 728 1
153 775 1
154 155 1
154 157 1
154 727 1
154 728 1
154 731 1
155 156 1
155 157 1
155 158 1
156 157 1
156 158 1
156 159 1
156 161 1
156 203 1
156 206 1
156 207 1
157 158 1
157 202 1
157 203 1
157 206 1
157 728 1
157 731 1
157 732 1
157 779 1
158 159 1
158 161 1
158 731 1
158 732 1
158 735 1
159 160 1
159 161 1
159 162 1
160 161 1
160 162 1
160 163 1
160 165 1
160 207 1
160 210 1
160 211 1
161 162 1
161 206 1
161 207 1
161 210 1
161 732 1
161 735 1
161 736 1
161 783 1
162 163 1
162 165 1
162 735 1
162 736 1
162 739 1
163 164 1
163 165 1
163 166 1
164 165 1
164 166 1
164 167 1
164 169 1
164 211 1
164 214 1
164 215 1
165 166 1
165 210 1
165 211 1
165 214 1
165 736 1
165 739 1
165 740 1
165 787 1
166 167 1
166 169 1
166 739 1
166 740 1
166 743 1
167 168 1
167 169 1
167 170 1
168 169 1
168 170 1
168 171 1
168 173 1
168 215 1
168 218 1
168 219 1
169 170 1
169 214 1
169 215 1
169 218 1
169 740 1
169 743 1
169 744 1
169 791 1
170 171 1
170 173 1
170 743 1
170 744 1
170 747 1
171 172 1
171 173 1
171 174 1
172 173 1
172 174 1
172 175 1
172 177 1
172 219 1
172 222 1
172 223 1
173 174 1
173 218 1
173 219 1
173 222 1
173 744 1
173 747 1
173 748 1
173 795 1
174 175 1
174 177 1
174 747 1
174 748 1
174 751 1
175 176 1
175 177 1
175 178 1
176 177 1
176 178 1
176 179 1
176 181 1
176 223 1
176 226 1
176 227 1
177 178 1
177 222 1
177 223 1
177 226 1
177 748 1
177 751 1
177 752 1
177 799 1
178 179 1
178 181 1
178 751 1
178 752 1
178 755 1
179 180 1
179 181 1
179 182 1
180 181 1
180 182 1
180 183 1
180 185 1
180 227 1
180 230 1
180 231 1
181 182 1
181 226 1
181 227 1
181 230 1
181 752 1
181 755 1
181 756 1
181 803 1
182 183 1
182 185 1
182 755 1
182 756 1
182 759 1
183 184 1
183 185 1
183 186 1
184 185 1
184 186 1
184 187 1
184 189 1
184 231 1
184 234 1
184 235 1
185 186 1
185 230 1
185 231 1
185 234 1
185 756 1
185 759 1
185 760 1
185 807 1
186 187 1
186 189 1
186 759 1
186 760 1
186 763 1
187 188 1
187 189 1
187 190 1
188 189 1
188 190 1
188 191 1
188 193 1
188 235 1
188 238 1
188 239 1
189 190 1
189 234 1
189 235 1
189 238 1
189 760 1
189 763 1
189 764 1
189 811 1
190 191 1
190 193 1
190 763 1
190 764 1
190 767 1
191 192 1
191 193 1
191 194 1
192 193 1
192 194 1
192 195 1
192 197 1
192 239 1
192 242 1
192 243 1
193 194 1
193 238 1
193 239 1
193 242 1
193 764 1
193 767 1
193 768 1
193 815 1
194 195 1
194 197 1
194 767 1
194 768 1
194 771 1
195 196 1
195 197 1
195 198 1
196 197 1
196 198 1
196 243 1
196 246 1
197 198 1
197 242 1
197 243 1
197 246 1
197 768 1
197 771 1
197 772 1
197 819 1
198 771 1
198 772 1
199 200 1
199 201 1
199 202 1
200 201 1
200 202 1
200 203 1
200 205 1
200 247 1
200 250 1
200 251 1
201 202 1
201 247 1
201 250 1
201 775 1
201 776 1
201 823 1
202 203 1
202 205 1
202 728 1
202 775 1
202 776 1
202 779 1
203 204 1
203 205 1
203 206 1
204 205 1
204 206 1
204 207 1
204 209 1
204 251 1
204 254 1
204 255 1
205 206 1
205 250 1
205 251 1
205 254 1
205 776 1
205 779 1
205 780 1
205 827 1
206 207 1
206 209 1
206 732 1
206 779 1
206 780 1
206 783 1
207 208 1
207 209 1
207 210 1
208 209 1
208 210 1
208 211 1
208 213 1
208 255 1
208 258 1
208 259 1
209 210 1
209 254 1
209 255 1
209 258 1
209 780 1
209 783 1
209 784 1
209 831 1
210 211 1
210 213 1
210 736 1
210 783 1
210 784 1
210 787 1
211 212 1
211 213 1
211 214 1
212 213 1
212 214 1
212 215 1
212 217 1
212 259 1
212 262 1
212 263 1
213 214 1
213 258 1
213 259 1
213 262 1
213 784 1
213 787 1
213 788 1
213 835 1
214 215 1
214 217 1
214 740 1
214 787 1
214 788 1
214 791 1
215 216 1
215 217 1
215 218 1
216 217 1
216 218 1
216 219 1
216 221 1
216 263 1
216 266 1
216 267 1
217 218 1
217 262 1
217 263 1
217 266 1
217 788 1
217 791 1
217 792 1
217 839 1
218 219 1
218 221 1
218 744 1
218 791 1
218 792 1
218 795 1
219 220 1
219 221 1
219 222 1
220 221 1
220 222 1
220 223 1
220 225 1
220 267 1
220 270 1
220 271 1
221 222 1
221 266 1
221 267 1
221 270 1
221 792 1
221 795 1
221 796 1
221 843 1
222 223 1
222 225 1
222 748 1
222 795 1
222 796 1
222 799 1
223 224 1
223 225 1
223 226 1
224 225 1
224 226 1
224 227 1
224 229 1
224 271 1
224 274 1
224 275 1
225 226 1
225 270 1
225 271 1
225 274 1
225 796 1
225 799 1
225 800 1
225 847 1
226 227 1
226 229 1
226 752 1
226 799 1
226 800 1
226 803 1
227 228 1
227 229 1
227 230 1
228 229 1
228 230 1
228 231 1
228 233 1
228 275 1
228 278 1
228 279 1
229 230 1
229 274 1
229 275 1
229 278 1
229 800 1
229 803 1
229 804 1
229 851 1
230 231 1
230 233 1
230 756 1
230 803 1
230 804 1
230 807 1
231 232 1
231 233 1
231 234 1
232 233 1
232 234 1
232 235 1
232 237 1
232 279 1
232 282 1
232 283 1
233 234 1
233 278 1
233 279 1
233 282 1
233 804 1
233 807 1
233 808 1
233 855 1
234 235 1
234 237 1
234 760 1
234 807 1
234 808 1
234 811 1
235 236 1
235 237 1
235 238 1
236 237 1
236 238 1
236 239 1
236 241 1
236 283 1
236 286 1
236 287 1
237 238 1
237 282 1
237 283 1
237 286 1
237 808 1
237 811 1
237 812 1
237 859 1
238 239 1
238 241 1
238 764 1
238 811 1
238 812 1
238 815 1
239 240 1
239 241 1
239 242 1
240 241 1
240 242 1
240 243 1
240 245 1
240 287 1
240 290 1
240 291 1
241 242 1
241 286 1
241 287 1
241 290 1
241 812 1
241 815 1
241 816 1
241 863 1
242 243 1
242 245 1
242 768 1
242 815 1
242 816 1
242 819 1
243 244 1
243 245 1
243 246 1
244 245 1
244 246 1
244 291 1
244 294 1
245 246 1
245 290 1
245 291 1
245 294 1
245 816 1
245 819 1
245 820 1
245 867 1
246 772 1
246 819 1
246 820 1
247 248 1
247 249 1
247 250 1
248 249 1
248 250 1
248 251 1
248 253 1
248 295 1
248 298 1
248 299 1
249 250 1
249 295 1
249 298 1
249 823 1
249 824 1
249 871 1
250 251 1
250 253 1
250 776 1
250 823 1
250 824 1
250 827 1
251 252 1
251 253 1
251 254 1
252 253 1
252 254 1
252 255 1
252 257 1
252 299 1
252 302 1
252 303 1
253 254 1
253 298 1
253 299 1
253 302 1
253 824 1
253 827 1
253 828 1
253 875 1
254 255 1
254 257 1
254 780 1
254 827 1
254 828 1
254 831 1
255 256 1
255 257 1
255 258 1
256 257 1
256 258 1
256 259 1
256 261 1
256 303 1
256 306 1
256 307 1
257 258 1
257 302 1
257 303 1
257 306 1
257 828 1
257 831 1
257 832 1
257 879 1
258 259 1
258 261 1
258 784 1
258 831 1
258 832 1
258 835 1
259 260 1
259 261 1
259 262 1
260 261 1
260 262 1
260 263 1
260 265 1
260 307 1
260 310 1
260 311 1
261 262 1
261 306 1
261 307 1
261 310 1
261 832 1
261 835 1
261 836 1
261 883 1
262 263 1
262 265 1
262 788 1
262 835 1
262 836 1
262 839 1
263 264 1
263 265 1
263 266 1
264 265 1
264 266 1
264 267 1
264 269 1
264 311 1
264 314 1
264 315 1
265 266 1
265 310 1
265 311 1
265 314 1
265 836 1
265 839 1
265 840 1
265 887 1
266 267 1
266 269 1
266 792 1
266 839 1
266 840 1
266 843 1
267 268 1
267 269 1
267 270 1
268 269 1
268 270 1
268 271 1
268 273 1
268 315 1
268 318 1
268 319 1
269 270 1
269 314 1
269 315 1
269 318 1
269 840 1
269 843 1
269 844 1
269 891 1
270 271 1
270 273 1
270 796 1
270 843 1
270 844 1
270 847 1
271 272 1
271 273 1
271 274 1
272 273 1
272 274 1
272 275 1
272 277 1
272 319 1
272 322 1
272 323 1
273 274 1
273 318 1
273 319 1
273 322 1
273 844 1
273 847 1
273 848 1
273 895 1
274 275 1
274 277 1
274 800 1
274 847 1
274 848 1
274 851 1
275 276 1
275 277 1
275 278 1
276 277 1
276 278 1
276 279 1
276 281 1
276 323 1
276 326 1
276 327 1
277 278 1
277 322 1
277 323 1
277 326 1
277 848 1
277 851 1
277 852 1
277 899 1
278 279 1
278 281 1
278 804 1
278 851 1
278 852 1
278 855 1
279 280 1
279 281 1
279 282 1
280 281 1
280 282 1
280 283 1
280 285 1
280 327 1
280 330 1
280 331 1
281 282 1
281 326 1
281 327 1
281 330 1
281 852 1
281 855 1
281 856 1
281 903 1
282 283 1
282 285 1
282 808 1
282 855 1
282 856 1
282 859 1
283 284 1
283 285 1
283 286 1
284 285 1
284 286 1
284 287 1
284 289 1
284 331 1
284 334 1
284 335 1
285 286 1
285 330 1
285 331 1
285 334 1
285 856 1
285 859 1
285 860 1
285 907 1
286 287 1
286 289 1
286 812 1
286 859 1
286 860 1
286 863 1
287 288 1
287 289 1
287 290 1
288 289 1
288 290 1
288 291 1
288 293 1
288 335 1
288 338 1
288 339 1
289 290 1
289 334 1
289 335 1
289 338 1
289 860 1
289 863 1
289 864 1
289 911 1
290 291 1
290 293 1
290 816 1
290 863 1
290 864 1
290 867 1
291 292 1
291 293 1
291 294 1
292 293 1
292 294 1
292 339 1
292 342 1
293 294 1
293 338 1
293 339 1
293 342 1
293 864 1
293 867 1
293 868 1
293 915 1
294 820 1
294 867 1
294 868 1
295 296 1
295 297 1
295 298 1
296 297 1
296 298 1
296 299 1
296 301 1
296 343 1
296 346 1
296 347 1
297 298 1
297 343 1
297 346 1
297 871 1
297 872 1
297 919 1
298 299 1
298 301 1
298 824 1
298 871 1
298 872 1
298 875 1
299 300 1
299 301 1
299 302 1
300 301 1
300 302 1
300 303 1
300 305 1
300 347 1
300 350 1
300 351 1
301 302 1
301 346 1
301 347 1
301 350 1
301 872 1
301 875 1
301 876 1
301 923 1
302 303 1
302 305 1
302 828 1
302 875 1
302 876 1
302 879 1
303 304 1
303 305 1
303 306 1
304 305 1
304 306 1
304 307 1
304 309 1
304 351 1
304 354 1
304 355 1
305 306 1
305 350 1
305 351 1
305 354 1
305 876 1
305 879 1
305 880 1
305 927 1
306 307 1
306 309 1
306 832 1
306 879 1
306 880 1
306 883 1
307 308 1
307 309 1
307 310 1
308 309 1
308 310 1
308 311 1
308 313 1
308 355 1
308 358 1
308 359 1
309 310 1
309 354 1
309 355 1
309 358 1
309 880 1
309 883 1
309 884 1
309 931 1
310 311 1
310 313 1
310 836 1
310 883 1
310 884 1
310 887 1
311 312 1
311 313 1
311 314 1
312 313 1
312 314 1
312 315 1
312 317 1
312 359 1
312 362 1
312 363 1
313 314 1
313 358 1
313 359 1
313 362 1
313 884 1
313 887 1
313 888 1
313 935 1
314 315 1
314 317 1
314 840 1
314 887 1
314 888 1
314 891 1
315 316 1
315 317 1
315 318 1
316 317 1
316 318 1
316 319 1
316 321 1
316 363 1
316 366 1
316 367 1
317 318 1
317 362 1
317 363 1
317 366 1
317 888 1
317 891 1
317 892 1
317 939 1
318 319 1
318 321 1
318 844 1
318 891 1
318 892 1
318 895 1
319 320 1
319 321 1
319 322 1
320 321 1
320 322 1
320 323 1
320 325 1
320 367 1
320 370 1
320 371 1
321 322 1
321 366 1
321 367 1
321 370 1
321 892 1
321 895 1
321 896 1
321 943 1
322 323 1
322 325 1
322 848 1
322 895 1
322 896 1
322 899 1
323 324 1
323 325 1
323 326 1
324 325 1
324 326 1
324 327 1
324 329 1
324 371 1
324 374 1
324 375 1
325 326 1
325 370 1
325 371 1
325 374 1
325 896 1
325 899 1
325 900 1
325 947 1
326 327 1
326 329 1
326 852 1
326 899 1
326 900 1
326 903 1
327 328 1
327 329 1
327 330 1
328 329 1
328 330 1
328 331 1
328 333 1
328 375 1
328 378 1
328 379 1
329 330 1
329 374 1
329 375 1
329 378 1
329 900 1
329 903 1
329 904 1
329 951 1
330 331 1
330 333 1
330 856 1
330 903 1
330 904 1
330 907 1
331 332 1
331 333 1
331 334 1
332 333 1
332 334 1
332 335 1
332 337 1
332 379 1
332 382 1
332 383 1
333 334 1
333 378 1
333 379 1
333 382 1
333 904 1
333 907 1
333 908 1
333 955 1
334 335 1
334 337 1
334 860 1
334 907 1
334 908 1
334 911 1
335 336 1
335 337 1
335 338 1
336 337 1
336 338 1
336 339 1
336 341 1
336 383 1
336 386 1
336 387 1
337 338 1
337 382 1
337 383 1
337 386 1
337 908 1
337 911 1
337 912 1
337 959 1
338 339 1
338 341 1
338 864 1
338 911 1
338 912 1
338 915 1
339 340 1
339 341 1
339 342 1
340 341 1
340 342 1
340 387 1
340 390 1
341 342 1
341 386 1
341 387 1
341 390 1
341 912 1
341 915 1
341 916 1
341 963 1
342 868 1
342 915 1
342 916 1
343 344 1
343 345 1
343 346 1
344 345 1
344 346 1
344 347 1
344 349 1
344 391 1
344 394 1
344 395 1
345 346 1
345 391 1
345 394 1
345 919 1
345 920 1
345 967 1
346 347 1
346 349 1
346 872 1
346 919 1
346 920 1
346 923 1
347 348 1
347 349 1
347 350 1
348 349 1
348 350 1
348 351 1
348 353 1
348 395 1
348 398 1
348 399 1
349 350 1
349 394 1
349 395 1
349 398 1
349 920 1
349 923 1
349 924 1
349 971 1
350 351 1
350 353 1
350 876 1
350 923 1
350 924 1
350 927 1
351 352 1
351 353 1
351 354 1
352 353 1
352 354 1
352 355 1
352 357 1
352 399 1
352 402 1
352 403 1
353 354 1
353 398 1
353 399 1
353 402 1
353 924 1
353 927 1
353 928 1
353 975 1
354 355 1
354 357 1
354 880 1
354 927 1
354 928 1
354 931 1
355 356 1
355 357 1
355 358 1
356 357 1
356 358 1
356 359 1
356 361 1
356 403 1
356 406 1
356 407 1
357 358 1
357 402 1
357 403 1
357 406 1
357 928 1
357 931 1
357 932 1
357 979 1
358 359 1
358 361 1
358 884 1
358 931 1
358 932 1
358 935 1
359 360 1
359 361 1
359 362 1
360 361 1
360 362 1
360 363 1
360 365 1
360 407 1
360 410 1
360 411 1
361 362 1
361 406 1
361 407 1
361 410 1
361 932 1
361 935 1
361 936 1
361 983 1
362 363 1
362 365 1
362 888 1
362 935 1
362 936 1
362 939 1
363 364 1
363 365 1
363 366 1
364 365 1
364 366 1
364 367 1
364 369 1
364 411 1
364 414 1
364 415 1
365 366 1
365 410 1
365 411 1
365 414 1
365 936 1
365 939 1
365 940 1
365 987 1
366 367 1
366 369 1
366 892 1
366 939 1
366 940 1
366 943 1
367 368 1
367 369 1
367 370 1
368 369 1
368 370 1
368 371 1
368 373 1
368 415 1
368 418 1
368 419 1
369 370 1
369 414 1
369 415 1
369 418 1
369 940 1
369 943 1
369 944 1
369 991 1
370 371 1
370 373 1
370 896 1
370 943 1
370 944 1
370 947 1
371 372 1
371 373 1
371 374 1
372 373 1
372 374 1
372 375 1
372 377 1
372 419 1
372 422 1
372 423 1
373 374 1
373 418 1
373 419 1
373 422 1
373 944 1
373 947 1
373 948 1
373 995 1
374 375 1
374 377 1
374 900 1
374 947 1
374 948 1
374 951 1
375 376 1
375 377 1
375 378 1
376 377 1
376 378 1
376 379 1
376 381 1
376 423 1
376 426 1
376 427 1
377 378 1
377 422 1
377 423 1
377 426 1
377 948 1
377 951 1
377 952 1
377 999 1
378 379 1
378 381 1
378 904 1
378 951 1
378 952 1
378 955 1
379 380 1
379 381 1
379 382 1
380 381 1
380 382 1
380 383 1
380 385 1
380 427 1
380 430 1
380 431 1
381 382 1
381 426 1
381 427 1
381 430 1
381 952 1
381 955 1
381 956 1
381 1003 1
382 383 1
382 385 1
382 908 1
382 955 1
382 956 1
382 959 1
383 384 1
383 385 1
383 386 1
384 385 1
384 386 1
384 387 1
384 389 1
384 431 1
384 434 1
384 435 1
385 386 1
385 430 1
385 431 1
385 434 1
385 956 1
385 959 1
385 960 1
385 1007 1
386 387 1
386 389 1
386 912 1
386 959 1
386 960 1
386 963 1
387 388 1
387 389 1
387 390 1
388 389 1
388 390 1
388 435 1
388 438 1
389 390 1
389 434 1
389 435 1
389 438 1
389 960 1
389 963 1
389 964 1
389 1011 1
390 916 1
390 963 1
390 964 1
391 392 1
391 393 1
391 394 1
392 393 1
392 394 1
392 395 1
392 397 1
392 439 1
392 442 1
392 443 1
393 394 1
393 439 1
393 442 1
393 967 1
393 968 1
393 1015 1
394 395 1
394 397 1
394 920 1
394 967 1
394 968 1
394 971 1
395 396 1
395 397 1
395 398 1
396 397 1
396 398 1
396 399 1
396 401 1
396 443 1
396 446 1
396 447 1
397 398 1
397 442 1
397 443 1
397 446 1
397 968 1
397 971 1
397 972 1
397 1019 1
398 399 1
398 401 1
398 924 1
398 971 1
398 972 1
398 975 1
399 400 1
399 401 1
399 402 1
400 401 1
400 402 1
400 403 1
400 405 1
400 447 1
400 450 1
400 451 1
401 402 1
401 446 1
401 447 1
401 450 1
401 972 1
401 975 1
401 976 1
401 1023 1
402 403 1
402 405 1
402 928 1
402 975 1
402 976 1
402 979 1
403 404 1
403 405 1
403 406 1
404 405 1
404 406 1
404 407 1
404 409 1
404 451 1
404 454 1
404 455 1
405 406 1
405 450 1
405 451 1
405 454 1
405 976 1
405 979 1
405 980 1
405 1027 1
406 407 1
406 409 1
406 932 1
406 979 1
406 980 1
406 983 1
407 408 1
407 409 1
407 410 1
408 409 1
408 410 1
408 411 1
408 413 1
408 455 1
408 458 1
408 459 1
409 410 1
409 454 1
409 455 1
409 458 1
409 980 1
409 983 1
409 984 1
409 1031 1
410 411 1
410 413 1
410 936 1
410 983 1
410 984 1
410 987 1
411 412 1
411 413 1
411 414 1
412 413 1
412 414 1
412 415 1
412 417 1
412 459 1
412 462 1
412 463 1
413 414 1
413 458 1
413 459 1
413 462 1
413 984 1
413 987 1
413 988 1
413 1035 1
414 415 1
414 417 1
414 940 1
414 987 1
414 988 1
414 991 1
415 416 1
415 417 1
415 418 1
416 417 1
416 418 1
416 419 1
416 421 1
416 463 1
416 466 1
416 467 1
417 418 1
417 462 1
417 463 1
417 466 1
417 988 1
417 991 1
417 992 1
417 1039 1
418 419 1
418 421 1
418 944 1
418 991 1
418 992 1
418 995 1
419 420 1
419 421 1
419 422 1
420 421 1
420 422 1
420 423 1
420 425 1
420 467 1
420 470 1
420 471 1
421 422 1
421 466 1
421 467 1
421 470 1
421 992 1
421 995 1
421 996 1
421 1043 1
422 423 1
422 425 1
422 948 1
422 995 1
422 996 1
422 999 1
423 424 1
423 425 1
423 426 1
424 425 1
424 426 1
424 427 1
424 429 1
424 471 1
424 474 1
424 475 1
425 426 1
425 470 1
425 471 1
425 474 1
425 996 1
425 999 1
425 1000 1
425 1047 1
426 427 1
426 429 1
426 952 1
426 999 1
426 1000 1
426 1003 1
427 428 1
427 429 1
427 430 1
428 429 1
428 430 1
428 431 1
428 433 1
428 475 1
428 478 1
428 479 1
429 430 1
429 474 1
429 475 1
429 478 1
429 1000 1
429 1003 1
429 1004 1
429 1051 1
430 431 1
430 433 1
430 956 1
430 1003 1
430 1004 1
430 1007 1
431 432 1
431 433 1
431 434 1
432 433 1
432 434 1
432 435 1
432 437 1
432 479 1
432 482 1
432 483 1
433 434 1
433 478 1
433 479 1
433 482 1
433 1004 1
433 1007 1
433 1008 1
433 1055 1
434 435 1
434 437 1
434 960 1
434 1007 1
434 1008 1
434 1011 1
435 436 1
435 437 1
435 438 1
436 437 1
436 438 1
436 483 1
436 486 1
437 438 1
437 482 1
437 483 1
437 486 1
437 1008 1
437 1011 1
437 1012 1
437 1059 1
438 964 1
438 1011 1
438 1012 1
439 440 1
439 441 1
439 442 1
440 441 1
440 442 1
440 443 1
440 445 1
440 487 1
440 490 1
440 491 1
441 442 1
441 487 1
441 490 1
441 1015 1
441 1016 1
441 1063 1
442 443 1
442 445 1
442 968 1
442 1015 1
442 1016 1
442 1019 1
443 444 1
443 445 1
443 446 1
444 445 1
444 446 1
444 447 1
444 449 1
444 491 1
444 494 1
444 495 1
445 446 1
445 490 1
445 491 1
445 494 1
445 1016 1
445 1019 1
445 1020 1
445 1067 1
446 447 1
446 449 1
446 972 1
446 1019 1
446 1020 1
446 1023 1
447 448 1
447 449 1
447 450 1
448 449 1
448 450 1
448 451 1
448 453 1
448 495 1
448 498 1
448 499 1
449 450 1
449 494 1
449 495 1
449 498 1
449 1020 1
449 1023 1
449 1024 1
449 1071 1
450 451 1
450 453 1
450 976 1
450 1023 1
450 1024 1
450 1027 1
451 452 1
451 453 1
451 454 1
452 453 1
452 454 1
452 455 1
452 457 1
452 499 1
452 502 1
452 503 1
453 454 1
453 498 1
453 499 1
453 502 1
453 1024 1
453 1027 1
453 1028 1
453 1075 1
454 455 1
454 457 1
454 980 1
454 1027 1
454 1028 1
454 1031 1
455 456 1
455 457 1
455 458 1
456 457 1
456 458 1
456 459 1
456 461 1
456 503 1
456 506 1
456 507 1
457 458 1
457 502 1
457 503 1
457 506 1
457 1028 1
457 1031 1
457 1032 1
457 1079 1
458 459 1
458 461 1
458 984 1
458 1031 1
458 1032 1
458 1035 1
459 460 1
459 461 1
459 462 1
460 461 1
460 462 1
460 463 1
460 465 1
460 507 1
460 510 1
460 511 1
461 462 1
461 506 1
461 507 1
461 510 1
461 1032 1
461 1035 1
461 1036 1
461 1083 1
462 463 1
462 465 1
462 988 1
462 1035 1
462 1036 1
462 1039 1
463 464 1
463 465 1
463 466 1
464 465 1
464 466 1
464 467 1
464 469 1
464 511 1
464 514 1
464 515 1
465 466 1
465 510 1
465 511 1
465 514 1
465 1036 1
465 1039 1
465 1040 1
465 1087 1
466 467 1
466 469 1
466 992 1
466 1039 1
466 1040 1
466 1043 1
467 468 1
467 469 1
467 470 1
468 469 1
468 470 1
468 471 1
468 473 1
468 515 1
468 518 1
468 519 1
469 470 1
469 514 1
469 515 1
469 518 1
469 1040 1
469 1043 1
469 1044 1
469 1091 1
470 471 1
470 473 1
470 996 1
470 1043 1
470 1044 1
470 1047 1
471 472 1
471 473 1
471 474 1
472 473 1
472 474 1
472 475 1
472 477 1
472 519 1
472 522 1
472 523 1
473 474 1
473 518 1
473 519 1
473 522 1
473 1044 1
473 1047 1
473 1048 1
473 1095 1
474 475 1
474 477 1
474 1000 1
474 1047 1
474 1048 1
474 1051 1
475 476 1
475 477 1
475 478 1
476 477 1
476 478 1
476 479 1
476 481 1
476 523 1
476 526 1
476 527 1
477 478 1
477 522 1
477 523 1
477 526 1
477 1048 1
477 1051 1
477 1052 1
477 1099 1
478 479 1
478 481 1
478 1004 1
478 1051 1
478 1052 1
478 1055 1
479 480 1
479 481 1
479 482 1
480 481 1
480 482 1
480 483 1
480 485 1
480 527 1
480 530 1
480 531 1
481 482 1
481 526 1
481 527 1
481 530 1
481 1052 1
481 1055 1
481 1056 1
481 1103 1
482 483 1
482 485 1
482 1008 1
482 1055 1
482 1056 1
482 1059 1
483 484 1
483 485 1
483 486 1
484 485 1
484 486 1
484 531 1
484 534 1
485 486 1
485 530 1
485 531 1
485 534 1
485 1056 1
485 1059 1
485 1060 1
485 1107 1
486 1012 1
486 1059 1
486 1060 1
487 488 1
487 489 1
487 490 1
488 489 1
488 490 1
488 491 1
488 493 1
488 535 1
488 538 1
488 539 1
489 490 1
489 535 1
489 538 1
489 1063 1
489 1064 1
489 1111 1
490 491 1
490 493 1
490 1016 1
490 1063 1
490 1064 1
490 1067 1
491 492 1
491 493 1
491 494 1
492 493 1
492 494 1
492 495 1
492 497 1
492 539 1
492 542 1
492 543 1
493 494 1
493 538 1
493 539 1
493 542 1
493 1064 1
493 1067 1
493 1068 1
493 1115 1
494 495 1
494 497 1
494 1020 1
494 1067 1
494 1068 1
494 1071 1
495 496 1
495 497 1
495 498 1
496 497 1
496 498 1
496 499 1
496 501 1
496 543 1
496 546 1
496 547 1
497 498 1
497 542 1
497 543 1
497 546 1
497 1068 1
497 1071 1
497 1072 1
497 1119 1
498 499 1
498 501 1
498 1024 1
498 1071 1
498 1072 1
498 1075 1
499 500 1
499 501 1
499 502 1
500 501 1
500 502 1
500 503 1
500 505 1
500 547 1
500 550 1
500 551 1
501 502 1
501 546 1
501 547 1
501 550 1
501 1072 1
501 1075 1
501 1076 1
501 1123 1
502 503 1
502 505 1
502 1028 1
502 1075 1
502 1076 1
502 1079 1
503 504 1
503 505 1
503 506 1
504 505 1
504 506 1
504 507 1
504 509 1
504 551 1
504 554 1
504 555 1
505 506 1
505 550 1
505 551 1
505 554 1
505 1076 1
505 1079 1
505 1080 1
505 1127 1
506 507 1
506 509 1
506 1032 1
506 1079 1
506 1080 1
506 1083 1
507 508 1
507 509 1
507 510 1
508 509 1
508 510 1
508 511 1
508 513 1
508 555 1
508 558 1
508 559 1
509 510 1
509 554 1
509 555 1
509 558 1
509 1080 1
509 1083 1
509 1084 1
509 1131 1
510 511 1
510 513 1
510 1036 1
510 1083 1
510 1084 1
510 1087 1
511 512 1
511 513 1
511 514 1
512 513 1
512 514 1
512 515 1
512 517 1
512 559 1
512 562 1
512 563 1
513 514 1
513 558 1
513 559 1
513 562 1
513 1084 1
513 1087 1
513 1088 1
513 1135 1
514 515 1
514 517 1
514 1040 1
514 1087 1
514 1088 1
514 1091 1
515 516 1
515 517 1
515 518 1
516 517 1
516 518 1
516 519 1
516 521 1
516 563 1
516 566 1
516 567 1
517 518 1
517 562 1
517 563 1
517 566 1
517 1088 1
517 1091 1
517 1092 1
517 1139 1
518 519 1
518 521 1
518 1044 1
518 1091 1
518 1092 1
518 1095 1
519 520 1
519 521 1
519 522 1
520 521 1
520 522 1
520 523 1
520 525 1
520 567 1
520 570 1
520 571 1
521 522 1
521 566 1
521 567 1
521 570 1
521 1092 1
521 1095 1
521 1096 1
521 1143 1
522 523 1
522 525 1
522 1048 1
522 1095 1
522 1096 1
522 1099 1
523 524 1
523 525 1
523 526 1
524 525 1
524 526 1
524 527 1
524 529 1
524 571 1
524 574 1
524 575 1
525 526 1
525 570 1
525 571 1
525 574 1
525 1096 1
525 1099 1
525 1100 1
525 1147 1
526 527 1
526 529 1
526 1052 1
526 1099 1
526 1100 1
526 1103 1
527 528 1
527 529 1
527 530 1
528 529 1
528 530 1
528 531 1
528 533 1
528 575 1
528 578 1
528 579 1
529 530 1
529 574 1
529 575 1
529 578 1
529 1100 1
529 1103 1
529 1104 1
529 1151 1
530 531 1
530 533 1
530 1056 1
530 1103 1
530 1104 1
530 1107 1
531 532 1
531 533 1
531 534 1
532 533 1
532 534 1
532 579 1
532 582 1
533 534 1
533 578 1
533 579 1
533 582 1
533 1104 1
533 1107 1
533 1108 1
533 1155 1
534 1060 1
534 1107 1
534 1108 1
535 536 1
535 537 1
535 538 1
536 537 1
536 538 1
536 539 1
536 541 1
536 583 1
536 586 1
536 587 1
537 538 1
537 583 1
537 586 1
537 1111 1
537 1112 1
537 1159 1
538 539 1
538 541 1
538 1064 1
538 1111 1
538 1112 1
538 1115 1
539 540 1
539 541 1
539 542 1
540 541 1
540 542 1
540 543 1
540 545 1
540 587 1
540 590 1
540 591 1
541 542 1
541 586 1
541 587 1
541 590 1
541 1112 1
541 1115 1
541 1116 1
541 1163 1
542 543 1
542 545 1
542 1068 1
542 1115 1
542 1116 1
542 1119 1
543 544 1
543 545 1
543 546 1
544 545 1
544 546 1
544 547 1
544 549 1
544 591 1
544 594 1
544 595 1
545 546 1
545 590 1
545 591 1
545 594 1
545 1116 1
545 1119 1
545 1120 1
545 1167 1
546 547 1
546 549 1
546 1072 1
546 1119 1
546 1120 1
546 1123 1
547 548 1
547 549 1
547 550 1
548 549 1
548 550 1
548 551 1
548 553 1
548 595 1
548 598 1
548 599 1
549 550 1
549 594 1
549 595 1
549 598 1
549 1120 1
549 1123 1
549 1124 1
549 1171 1
550 551 1
550 553 1
550 1076 1
550 1123 1
550 1124 1
550 1127 1
551 552 1
551 553 1
551 554 1
552 553 1
552 554 1
552 555 1
552 557 1
552 599 1
552 602 1
552 603 1
553 554 1
553 598 1
553 599 1
553 602 1
553 1124 1
553 1127 1
553 1128 1
553 1175 1
554 555 1
554 557 1
554 1080 1
554 1127 1
554 1128 1
554 1131 1
555 556 1
555 557 1
555 558 1
556 557 1
556 558 1
556 559 1
556 561 1
556 603 1
556 606 1
556 607 1
557 558 1
557 602 1
557 603 1
557 606 1
557 1128 1
557 1131 1
557 1132 1
557 1179 1
558 559 1
558 561 1
558 1084 1
558 1131 1
558 1132 1
558 1135 1
559 560 1
559 561 1
559 562 1
560 561 1
560 562 1
560 563 1
560 565 1
560 607 1
560 610 1
560 611 1
561 562 1
561 606 1
561 607 1
561 610 1
561 1132 1
561 1135 1
561 1136 1
561 1183 1
562 563 1
562 565 1
562 1088 1
562 1135 1
562 1136 1
562 1139 1
563 564 1
563 565 1
563 566 1
564 565 1
564 566 1
564 567 1
564 569 1
564 611 1
564 614 1
564 615 1
565 566 1
565 610 1
565 611 1
565 614 1
565 1136 1
565 1139 1
565 1140 1
565 1187 1
566 567 1
566 569 1
566 1092 1
566 1139 1
566 1140 1
566 1143 1
567 568 1
567 569 1
567 570 1
568 569 1
568 570 1
568 571 1
568 573 1
568 615 1
568 618 1
568 619 1
569 570 1
569 614 1
569 615 1
569 618 1
569 1140 1
569 1143 1
569 1144 1
569 1191 1
570 571 1
570 573 1
570 1096 1
570 1143 1
570 1144 1
570 1147 1
571 572 1
571 573 1
571 574 1
572 573 1
572 574 1
572 575 1
572 577 1
572 619 1
572 622 1
572 623 1
573 574 1
573 618 1
573 619 1
573 622 1
573 1144 1
573 1147 1
573 1148 1
573 1195 1
574 575 1
574 577 1
574 1100 1
574 1147 1
574 1148 1
574 1151 1
575 576 1
575 577 1
575 578 1
576 577 1
576 578 1
576 579 1
576 581 1
576 623 1
576 626 1
576 627 1
577 578 1
577 622 1
577 623 1
577 626 1
577 1148 1
577 1151 1
577 1152 1
577 1199 1
578 579 1
578 581 1
578 1104 1
578 1151 1
578 1152 1
578 1155 1
579 580 1
579 581 1
579 582 1
580 581 1
580 582 1
580 627 1
580 630 1
581 582 1
581 626 1
581 627 1
581 630 1
581 1152 1
581 1155 1
581 1156 1
581 1203 1
582 1108 1
582 1155 1
582 1156 1
583 584 1
583 585 1
583 586 1
584 585 1
584 586 1
584 587 1
584 589 1
584 631 1
584 634 1
584 635 1
585 586 1
585 631 1
585 634 1
585 1159 1
585 1160 1
585 1207 1
586 587 1
586 589 1
586 1112 1
586 1159 1
586 1160 1
586 1163 1
587 588 1
587 589 1
587 590 1
588 589 1
588 590 1
588 591 1
588 593 1
588 635 1
588 638 1
588 639 1
589 590 1
589 634 1
589 635 1
589 638 1
589 1160 1
589 1163 1
589 1164 1
589 1211 1
590 591 1
590 593 1
590 1116 1
590 1163 1
590 1164 1
590 1167 1
591 592 1
591 593 1
591 594 1
592 593 1
592 594 1
592 595 1
592 597 1
592 639 1
592 642 1
592 643 1
593 594 1
593 638 1
593 639 1
593 642 1
593 1164 1
593 1167 1
593 1168 1
593 1215 1
594 595 1
594 597 1
594 1120 1
594 1167 1
594 1168 1
594 1171 1
595 596 1
595 597 1
595 598 1
596 597 1
596 598 1
596 599 1
596 601 1
596 643 1
596 646 1
596 647 1
597 598 1
597 642 1
597 643 1
597 646 1
597 1168 1
597 1171 1
597 1172 1
597 1219 1
598 599 1
598 601 1
598 1124 1
598 1171 1
598 1172 1
598 1175 1
599 600 1
599 601 1
599 602 1
600 601 1
600 602 1
600 603 1
600 605 1
600 647 1
600 650 1
600 651 1
601 602 1
601 646 1
601 647 1
601 650 1
601 1172 1
601 1175 1
601 1176 1
601 1223 1
602 603 1
602 605 1
602 1128 1
602 1175 1
602 1176 1
602 1179 1
603 604 1
603 605 1
603 606 1
604 605 1
604 606 1
604 607 1
604 609 1
604 651 1
604 654 1
604 655 1
605 606 1
605 650 1
605 651 1
605 654 1
605 1176 1
605 1179 1
605 1180 1
605 1227 1
606 607 1
606 609 1
606 1132 1
606 1179 1
606 1180 1
606 1183 1
607 608 1
607 609 1
607 610 1
608 609 1
608 610 1
608 611 1
608 613 1
608 655 1
608 658 1
608 659 1
609 610 1
609 654 1
609 655 1
609 658 1
609 1180 1
609 1183 1
609 1184 1
609 1231 1
610 611 1
610 613 1
610 1136 1
610 1183 1
610 1184 1
610 1187 1
611 612 1
611 613 1
611 614 1
612 613 1
612 614 1
612 615 1
612 617 1
612 659 1
612 662 1
612 663 1
613 614 1
613 658 1
613 659 1
613 662 1
613 1184 1
613 1187 1
613 1188 1
613 1235 1
614 615 1
614 617 1
614 1140 1
614 1187 1
614 1188 1
614 1191 1
615 616 1
615 617 1
615 618 1
616 617 1
616 618 1
616 619 1
616 621 1
616 663 1
616 666 1
616 667 1
617 618 1
617 662 1
617 663 1
617 666 1
617 1188 1
617 1191 1
617 1192 1
617 1239 1
618 619 1
618 621 1
618 1144 1
618 1191 1
618 1192 1
618 1195 1
619 620 1
619 621 1
619 622 1
620 621 1
620 622 1
620 623 1
620 625 1
620 667 1
620 670 1
620 671 1
621 622 1
621 666 1
621 667 1
621 670 1
621 1192 1
621 1195 1
621 1196 1
621 1243 1
622 623 1
622 625 1
622 1148 1
622 1195 1
622 1196 1
622 1199 1
623 624 1
623 625 1
623 626 1
624 625 1
624 626 1
624 627 1
624 629 1
624 671 1
624 674 1
624 675 1
625 626 1
625 670 1
625 671 1
625 674 1
625 1196 1
625 1199 1
625 1200 1
625 1247 1
626 627 1
626 629 1
626 1152 1
626 1199 1
626 1200 1
626 1203 1
627 628 1
627 629 1
627 630 1
628 629 1
628 630 1
628 675 1
628 678 1
629 630 1
629 674 1
629 675 1
629 678 1
629 1200 1
629 1203 1
629 1204 1
629 1251 1
630 1156 1
630 1203 1
630 1204 1
631 632 1
631 633 1
631 634 1
632 633 1
632 634 1
632 635 1
632 637 1
632 679 1
632 682 1
632 683 1
633 634 1
633 679 1
633 682 1
633 1207 1
633 1208 1
633 1255 1
634 635 1
634 637 1
634 1160 1
634 1207 1
634 1208 1
634 1211 1
635 636 1
635 637 1
635 638 1
636 637 1
636 638 1
636 639 1
636 641 1
636 683 1
636 686 1
636 687 1
637 638 1
637 682 1
637 683 1
637 686 1
637 1208 1
637 1211 1
637 1212 1
637 1259 1
638 639 1
638 641 1
638 1164 1
638 1211 1
638 1212 1
638 1215 1
639 640 1
639 641 1
639 642 1
640 641 1
640 642 1
640 643 1
640 645 1
640 687 1
640 690 1
640 691 1
641 642 1
641 686 1
641 687 1
641 690 1
641 1212 1
641 1215 1
641 1216 1
641 1263 1
642 643 1
642 645 1
642 1168 1
642 1215 1
642 1216 1
642 1219 1
643 644 1
643 645 1
643 646 1
644 645 1
644 646 1
644 647 1
644 649 1
644 691 1
644 694 1
644 695 1
645 646 1
645 690 1
645 691 1
645 694 1
645 1216 1
645 1219 1
645 1220 1
645 1267 1
646 647 1
646 649 1
646 1172 1
646 1219 1
646 1220 1
646 1223 1
647 648 1
647 649 1
647 650 1
648 649 1
648 650 1
648 651 1
648 653 1
648 695 1
648 698 1
648 699 1
649 650 1
649 694 1
649 695 1
649 698 1
649 1220 1
649 1223 1
649 1224 1
649 1271 1
650 651 1
650 653 1
650 1176 1
650 1223 1
650 1224 1
650 1227 1
651 652 1
651 653 1
651 654 1
652 653 1
652 654 1
652 655 1
652 657 1
652 699 1
652 702 1
652 703 1
653 654 1
653 698 1
653 699 1
653 702 1
653 1224 1
653 1227 1
653 1228 1
653 1275 1
654 655 1
654 657 1
654 1180 1
654 1227 1
654 1228 1
654 1231 1
655 656 1
655 657 1
655 658 1
656 657 1
656 658 1
656 659 1
656 661 1
656 703 1
656 706 1
656 707 1
657 658 1
657 702 1
657 703 1
657 706 1
657 1228 1
657 1231 1
657 1232 1
657 1279 1
658 659 1
658 661 1
658 1184 1
658 1231 1
658 1232 1
658 1235 1
659 660 1
659 661 1
659 662 1
660 661 1
660 662 1
660 663 1
660 665 1
660 707 1
660 710 1
660 711 1
661 662 1
661 706 1
661 707 1
661 710 1
661 1232 1
661 1235 1
661 1236 1
661 1283 1
662 663 1
662 665 1
662 1188 1
662 1235 1
662 1236 1
662 1239 1
663 664 1
663 665 1
663 666 1
664 665 1
664 666 1
664 667 1
664 669 1
664 711 1
664 714 1
664 715 1
665 666 1
665 710 1
665 711 1
665 714 1
665 1236 1
665 1239 1
665 1240 1
665 1287 1
666 667 1
666 669 1
666 1192 1
666 1239 1
666 1240 1
666 1243 1
667 668 1
667 669 1
667 670 1
668 669 1
668 670 1
668 671 1
668 673 1
668 715 1
668 718 1
668 719 1
669 670 1
669 714 1
669 715 1
669 718 1
669 1240 1
669 1243 1
669 1244 1
669 1291 1
670 671 1
670 673 1
670 1196 1
670 1243 1
670 1244 1
670 1247 1
671 672 1
671 673 1
671 674 1
672 673 1
672 674 1
672 675 1
672 677 1
672 719 1
672 722 1
672 723 1
673 674 1
673 718 1
673 719 1
673 722 1
673 1244 1
673 1247 1
673 1248 1
673 1295 1
674 675 1
674 677 1
674 1200 1
674 1247 1
674 1248 1
674 1251 1
675 676 1
675 677 1
675 678 1
676 677 1
676 678 1
676 723 1
676 726 1
677 678 1
677 722 1
677 723 1
677 726 1
677 1248 1
677 1251 1
677 1252 1
677 1299 1
678 1204 1
678 1251 1
678 1252 1
679 680 1
679 681 1
679 682 1
680 681 1
680 682 1
680 683 1
680 685 1
681 682 1
681 1255 1
681 1256 1
682 683 1
682 685 1
682 1208 1
682 1255 1
682 1256 1
682 1259 1
683 684 1
683 685 1
683 686 1
684 685 1
684 686 1
684 687 1
684 689 1
685 686 1
685 1256 1
685 1259 1
685 1260 1
686 687 1
686 689 1
686 1212 1
686 1259 1
686 1260 1
686 1263 1
687 688 1
687 689 1
687 690 1
688 689 1
688 690 1
688 691 1
688 693 1
689 690 1
689 1260 1
689 1263 1
689 1264 1
690 691 1
690 693 1
690 1216 1
690 1263 1
690 1264 1
690 1267 1
691 692 1
691 693 1
691 694 1
692 693 1
692 694 1
692 695 1
692 697 1
693 694 1
693 1264 1
693 1267 1
693 1268 1
694 695 1
694 697 1
694 1220 1
694 1267 1
694 1268 1
694 1271 1
695 696 1
695 697 1
695 698 1
696 697 1
696 698 1
696 699 1
696 701 1
697 698 1
697 1268 1
697 1271 1
697 1272 1
698 699 1
698 701 1
698 1224 1
698 1271 1
698 1272 1
698 1275 1
699 700 1
699 701 1
699 702 1
700 701 1
700 702 1
700 703 1
700 705 1
701 702 1
701 1272 1
701 1275 1
701 1276 1
702 703 1
702 705 1
702 1228 1
702 1275 1
702 1276 1
702 1279 1
703 704 1
703 705 1
703 706 1
704 705 1
704 706 1
704 707 1
704 709 1
705 706 1
705 1276 1
705 1279 1
705 1280 1
706 707 1
706 709 1
706 1232 1
706 1279 1
706 1280 1
706 1283 1
707 708 1
707 709 1
707 710 1
708 709 1
708 710 1
708 711 1
708 713 1
709 710 1
709 1280 1
709 1283 1
709 1284 1
710 711 1
710 713 1
710 1236 1
710 1283 1
710 1284 1
710 1287 1
711 712 1
711 713 1
711 714 1
712 713 1
712 714 1
712 715 1
712 717 1
713 714 1
713 1284 1
713 1287 1
713 1288 1
714 715 1
714 717 1
714 1240 1
714 1287 1
714 1288 1
714 1291 1
715 716 1
715 717 1
715 718 1
716 717 1
716 718 1
716 719 1
716 721 1
717 718 1
717 1288 1
717 1291 1
717 1292 1
718 719 1
718 721 1
718 1244 1
718 1291 1
718 1292 1
718 1295 1
719 720 1
719 721 1
719 722 1
720 721 1
720 722 1
720 723 1
720 725 1
721 722 1
721 1292 1
721 1295 1
721 1296 1
722 723 1
722 725 1
722 1248 1
722 1295 1
722 1296 1
722 1299 1
723 724 1
723 725 1
723 726 1
724 725 1
724 726 1
725 726 1
725 1296 1
725 1299 1
725 1300 1
726 1252 1
726 1299 1
726 1300 1
727 728 1
727 729 1
727 730 1
728 729 1
728 730 1
728 731 1
728 733 1
728 775 1
728 778 1
728 779 1
729 730 1
729 775 1
729 778 1
730 731 1
730 733 1
731 732 1
731 733 1
731 734 1
732 733 1
732 734 1
732 735 1
732 737 1
732 779 1
732 782 1
732 783 1
733 734 1
733 778 1
733 779 1
733 782 1
734 735 1
734 737 1
735 736 1
735 737 1
735 738 1
736 737 1
736 738 1
736 739 1
736 741 1
736 783 1
736 786 1
736 787 1
737 738 1
737 782 1
737 783 1
737 786 1
738 739 1
738 741 1
739 740 1
739 741 1
739 742 1
740 741 1
740 742 1
740 743 1
740 745 1
740 787 1
740 790 1
740 791 1
741 742 1
741 786 1
741 787 1
741 790 1
742 743 1
742 745 1
743 744 1
743 745 1
743 746 1
744 745 1
744 746 1
744 747 1
744 749 1
744 791 1
744 794 1
744 795 1
745 746 1
745 790 1
745 791 1
745 794 1
746 747 1
746 749 1
747 748 1
747 749 1
747 750 1
748 749 1
748 750 1
748 751 1
748 753 1
748 795 1
748 798 1
748 799 1
749 750 1
749 794 1
749 795 1
749 798 1
750 751 1
750 753 1
751 752 1
751 753 1
751 754 1
752 753 1
752 754 1
752 755 1
752 757 1
752 799 1
752 802 1
752 803 1
753 754 1
753 798 1
753 799 1
753 802 1
754 755 1
754 757 1
755 756 1
755 757 1
755 758 1
756 757 1
756 758 1
756 759 1
756 761 1
756 803 1
756 806 1
756 807 1
757 758 1
757 802 1
757 803 1
757 806 1
758 759 1
758 761 1
759 760 1
759 761 1
759 762 1
760 761 1
760 762 1
760 763 1
760 765 1
760 807 1
760 810 1
760 811 1
761 762 1
761 806 1
761 807 1
761 810 1
762 763 1
762 765 1
763 764 1
763 765 1
763 766 1
764 765 1
764 766 1
764 767 1
764 769 1
764 811 1
764 814 1
764 815 1
765 766 1
765 810 1
765 811 1
765 814 1
766 767 1
766 769 1
767 768 1
767 769 1
767 770 1
768 769 1
768 770 1
768 771 1
768 773 1
768 815 1
768 818 1
768 819 1
769 770 1
769 814 1
769 815 1
769 818 1
770 771 1
770 773 1
771 772 1
771 773 1
771 774 1
772 773 1
772 774 1
772 819 1
772 822 1
773 774 1
773 818 1
773 819 1
773 822 1
775 776 1
775 777 1
775 778 1
776 777 1
776 778 1
776 779 1
776 781 1
776 823 1
776 826 1
776 827 1
777 778 1
777 823 1
777 826 1
778 779 1
778 781 1
779 780 1
779 781 1
779 782 1
780 781 1
780 782 1
780 783 1
780 785 1
780 827 1
780 830 1
780 831 1
781 782 1
781 826 1
781 827 1
781 830 1
782 783 1
782 785 1
783 784 1
783 785 1
783 786 1
784 785 1
784 786 1
784 787 1
784 789 1
784 831 1
784 834 1
784 835 1
785 786 1
785 830 1
785 831 1
785 834 1
786 787 1
786 789 1
787 788 1
787 789 1
787 790 1
788 789 1
788 790 1
788 791 1
788 793 1
788 835 1
788 838 1
788 839 1
789 790 1
789 834 1
789 835 1
789 838 1
790 791 1
790 793 1
791 792 1
791 793 1
791 794 1
792 793 1
792 794 1
792 795 1
792 797 1
792 839 1
792 842 1
792 843 1
793 794 1
793 838 1
793 839 1
793 842 1
794 795 1
794 797 1
795 796 1
795 797 1
795 798 1
796 797 1
796 798 1
796 799 1
796 801 1
796 843 1
796 846 1
796 847 1
797 798 1
797 842 1
797 843 1
797 846 1
798 799 1
798 801 1
799 800 1
799 801 1
799 802 1
800 801 1
800 802 1
800 803 1
800 805 1
800 847 1
800 850 1
800 851 1
801 802 1
801 846 1
801 847 1
801 850 1
802 803 1
802 805 1
803 804 1
803 805 1
803 806 1
804 805 1
804 806 1
804 807 1
804 809 1
804 851 1
804 854 1
804 855 1
805 806 1
805 850 1
805 851 1
805 854 1
806 807 1
806 809 1
807 808 1
807 809 1
807 810 1
808 809 1
808 810 1
808 811 1
808 813 1
808 855 1
808 858 1
808 859 1
809 810 1
809 854 1
809 855 1
809 858 1
810 811 1
810 813 1
811 812 1
811 813 1
811 814 1
812 813 1
812 814 1
812 815 1
812 817 1
812 859 1
812 862 1
812 863 1
813 814 1
813 858 1
813 859 1
813 862 1
814 815 1
814 817 1
815 816 1
815 817 1
815 818 1
816 817 1
816 818 1
816 819 1
816 821 1
816 863 1
816 866 1
816 867 1
817 818 1
817 862 1
817 863 1
817 866 1
818 819 1
818 821 1
819 820 1
819 821 1
819 822 1
820 821 1
820 822 1
820 867 1
820 870 1
821 822 1
821 866 1
821 867 1
821 870 1
823 824 1
823 825 1
823 826 1
824 825 1
824 826 1
824 827 1
824 829 1
824 871 1
824 874 1
824 875 1
825 826 1
825 871 1
825 874 1
826 827 1
826 829 1
827 828 1
827 829 1
827 830 1
828 829 1
828 830 1
828 831 1
828 833 1
828 875 1
828 878 1
828 879 1
829 830 1
829 874 1
829 875 1
829 878 1
830 831 1
830 833 1
831 832 1
831 833 1
831 834 1
832 833 1
832 834 1
832 835 1
832 837 1
832 879 1
832 882 1
832 883 1
833 834 1
833 878 1
833 879 1
833 882 1
834 835 1
834 837 1
835 836 1
835 837 1
835 838 1
836 837 1
836 838 1
836 839 1
836 841 1
836 883 1
836 886 1
836 887 1
837 838 1
837 882 1
837 883 1
837 886 1
838 839 1
838 841 1
839 840 1
839 841 1
839 842 1
840 841 1
840 842 1
840 843 1
840 845 1
840 887 1
840 890 1
840 891 1
841 842 1
841 886 1
841 887 1
841 890 1
842 843 1
842 845 1
843 844 1
843 845 1
843 846 1
844 845 1
844 846 1
844 847 1
844 849 1
844 891 1
844 894 1
844 895 1
845 846 1
845 890 1
845 891 1
845 894 1
846 847 1
846 849 1
847 848 1
847 849 1
847 850 1
848 849 1
848 850 1
848 851 1
848 853 1
848 895 1
848 898 1
848 899 1
849 850 1
849 894 1
849 895 1
849 898 1
850 851 1
850 853 1
851 852 1
851 853 1
851 854 1
852 853 1
852 854 1
852 855 1
852 857 1
852 899 1
852 902 1
852 903 1
853 854 1
853 898 1
853 899 1
853 902 1
854 855 1
854 857 1
855 856 1
855 857 1
855 858 1
856 857 1
856 858 1
856 859 1
856 861 1
856 903 1
856 906 1
856 907 1
857 858 1
857 902 1
857 903 1
857 906 1
858 859 1
858 861 1
859 860 1
859 861 1
859 862 1
860 861 1
860 862 1
860 863 1
860 865 1
860 907 1
860 910 1
860 911 1
861 862 1
861 906 1
861 907 1
861 910 1
862 863 1
862 865 1
863 864 1
863 865 1
863 866 1
864 865 1
864 866 1
864 867 1
864 869 1
864 911 1
864 914 1
864 915 1
865 866 1
865 910 1
865 911 1
865 914 1
866 867 1
866 869 1
867 868 1
867 869 1
867 870 1
868 869 1
868 870 1
868 915 1
868 918 1
869 870 1
869 914 1
869 915 1
869 918 1
871 872 1
871 873 1
871 874 1
872 873 1
872 874 1
872 875 1
872 877 1
872 919 1
872 922 1
872 923 1
873 874 1
873 919 1
873 922 1
874 875 1
874 877 1
875 876 1
875 877 1
875 878 1
876 877 1
876 878 1
876 879 1
876 881 1
876 923 1
876 926 1
876 927 1
877 878 1
877 922 1
877 923 1
877 926 1
878 879 1
878 881 1
879 880 1
879 881 1
879 882 1
880 881 1
880 882 1
880 883 1
880 885 1
880 927 1
880 930 1
880 931 1
881 882 1
881 926 1
881 927 1
881 930 1
882 883 1
882 885 1
883 884 1
883 885 1
883 886 1
884 885 1
884 886 1
884 887 1
884 889 1
884 931 1
884 934 1
884 935 1
885 886 1
885 930 1
885 931 1
885 934 1
886 887 1
886 889 1
887 888 1
887 889 1
887 890 1
888 889 1
888 890 1
888 891 1
888 893 1
888 935 1
888 938 1
888 939 1
889 890 1
889 934 1
889 935 1
889 938 1
890 891 1
890 893 1
891 892 1
891 893 1
891 894 1
892 893 1
892 894 1
892 895 1
892 897 1
892 939 1
892 942 1
892 943 1
893 894 1
893 938 1
893 939 1
893 942 1
894 895 1
894 897 1
895 896 1
895 897 1
895 898 1
896 897 1
896 898 1
896 899 1
896 901 1
896 943 1
896 946 1
896 947 1
897 898 1
897 942 1
897 943 1
897 946 1
898 899 1
898 901 1
899 900 1
899 901 1
899 902 1
900 901 1
900 902 1
900 903 1
900 905 1
900 947 1
900 950 1
900 951 1
901 902 1
901 946 1
901 947 1
901 950 1
902 903 1
902 905 1
903 904 1
903 905 1
903 906 1
904 905 1
904 906 1
904 907 1
904 909 1
904 951 1
904 954 1
904 955 1
905 906 1
905 950 1
905 951 1
905 954 1
906 907 1
906 909 1
907 908 1
907 909 1
907 910 1
908 909 1
908 910 1
908 911 1
908 913 1
908 955 1
908 958 1
908 959 1
909 910 1
909 954 1
909 955 1
909 958 1
910 911 1
910 913 1
911 912 1
911 913 1
911 914 1
912 913 1
912 914 1
912 915 1
912 917 1
912 959 1
912 962 1
912 963 1
913 914 1
913 958 1
913 959 1
913 962 1
914 915 1
914 917 1
915 916 1
915 917 1
915 918 1
916 917 1
916 918 1
916 963 1
916 966 1
917 918 1
917 962 1
917 963 1
917 966 1
919 920 1
919 921 1
919 922 1
920 921 1
920 922 1
920 923 1
920 925 1
920 967 1
920 970 1
920 971 1
921 922 1
921 967 1
921 970 1
922 923 1
922 925 1
923 924 1
923 925 1
923 926 1
924 925 1
924 926 1
924 927 1
924 929 1
924 971 1
924 974 1
924 975 1
925 926 1
925 970 1
925 971 1
925 974 1
926 927 1
926 929 1
927 928 1
927 929 1
927 930 1
928 929 1
928 930 1
928 931 1
928 933 1
928 975 1
928 978 1
928 979 1
929 930 1
929 974 1
929 975 1
929 978 1
930 931 1
930 933 1
931 932 1
931 933 1
931 934 1
932 933 1
932 934 1
932 935 1
932 937 1
932 979 1
932 982 1
932 983 1
933 934 1
933 978 1
933 979 1
933 982 1
934 935 1
934 937 1
935 936 1
935 937 1
935 938 1
936 937 1
936 938 1
936 939 1
936 941 1
936 983 1
936 986 1
936 987 1
937 938 1
937 982 1
937 983 1
937 986 1
938 939 1
938 941 1
939 940 1
939 941 1
939 942 1
940 941 1
940 942 1
940 943 1
940 945 1
940 987 1
940 990 1
940 991 1
941 942 1
941 986 1
941 987 1
941 990 1
942 943 1
942 945 1
943 944 1
943 945 1
943 946 1
944 945 1
944 946 1
944 947 1
944 949 1
944 991 1
944 994 1
944 995 1
945 946 1
945 990 1
945 991 1
945 994 1
946 947 1
946 949 1
947 948 1
947 949 1
947 950 1
948 949 1
948 950 1
948 951 1
948 953 1
948 995 1
948 998 1
948 999 1
949 950 1
949 994 1
949 995 1
949 998 1
950 951 1
950 953 1
951 952 1
951 953 1
951 954 1
952 953 1
952 954 1
952 955 1
952 957 1
952 999 1
952 1002 1
952 1003 1
953 954 1
953 998 1
953 999 1
953 1002 1
954 955 1
954 957 1
955 956 1
955 957 1
955 958 1
956 957 1
956 958 1
956 959 1
956 961 1
956 1003 1
956 1006 1
956 1007 1
957 958 1
957 1002 1
957 1003 1
957 1006 1
958 959 1
958 961 1
959 960 1
959 961 1
959 962 1
960 961 1
960 962 1
960 963 1
960 965 1
960 1007 1
960 1010 1
960 1011 1
961 962 1
961 1006 1
961 1007 1
961 1010 1
962 963 1
962 965 1
963 964 1
963 965 1
963 966 1
964 965 1
964 966 1
964 1011 1
964 1014 1
965 966 1
965 1010 1
965 1011 1
965 1014 1
967 968 1
967 969 1
967 970 1
968 969 1
968 970 1
968 971 1
968 973 1
968 1015 1
968 1018 1
968 1019 1
969 970 1
969 1015 1
969 1018 1
970 971 1
970 973 1
971 972 1
971 973 1
971 974 1
972 973 1
972 974 1
972 975 1
972 977 1
972 1019 1
972 1022 1
972 1023 1
973 974 1
973 1018 1
973 1019 1
973 1022 1
974 975 1
974 977 1
975 976 1
975 977 1
975 978 1
976 977 1
976 978 1
976 979 1
976 981 1
976 1023 1
976 1026 1
976 1027 1
977 978 1
977 1022 1
977 1023 1
977 1026 1
978 979 1
978 981 1
979 980 1
979 981 1
979 982 1
980 981 1
980 982 1
980 983 1
980 985 1
980 1027 1
980 1030 1
980 1031 1
981 982 1
981 1026 1
981 1027 1
981 1030 1
982 983 1
982 985 1
983 984 1
983 985 1
983 986 1
984 985 1
984 986 1
984 987 1
984 989 1
984 1031 1
984 1034 1
984 1035 1
985 986 1
985 1030 1
985 1031 1
985 1034 1
986 987 1
986 989 1
987 988 1
987 989 1
987 990 1
988 989 1
988 990 1
988 991 1
988 993 1
988 1035 1
988 1038 1
988 1039 1
989 990 1
989 1034 1
989 1035 1
989 1038 1
990 991 1
990 993 1
991 992 1
991 993 1
991 994 1
992 993 1
992 994 1
992 995 1
992 997 1
992 1039 1
992 1042 1
992 1043 1
993 994 1
993 1038 1
993 1039 1
993 1042 1
994 995 1
994 997 1
995 996 1
995 997 1
995 998 1
996 997 1
996 998 1
996 999 1
996 1001 1
996 1043 1
996 1046 1
996 1047 1
997 998 1
997 1042 1
997 1043 1
997 1046 1
998 999 1
998 1001 1
999 1000 1
999 1001 1
999 1002 1
1000 1001 1
1000 1002 1
1000 1003 1
1000 1005 1
1000 1047 1
1000 1050 1
1000 1051 1
1001 1002 1
1001 1046 1
1001 1047 1
1001 1050 1
1002 1003 1
1002 1005 1
1003 1004 1
1003 1005 1
1003 1006 1
1004 1005 1
1004 1006 1
1004 1007 1
1004 1009 1
1004 1051 1
1004 1054 1
1004 1055 1
1005 1006 1
1005 1050 1
1005 1051 1
1005 1054 1
1006 1007 1
1006 1009 1
1007 1008 1
1007 1009 1
1007 1010 1
1008 1009 1
1008 1010 1
1008 1011 1
1008 1013 1
1008 1055 1
1008 1058 1
1008 1059 1
1009 1010 1
1009 1054 1
1009 1055 1
1009 1058 1
1010 1011 1
1010 1013 1
1011 1012 1
1011 1013 1
1011 1014 1
1012 1013 1
1012 1014 1
1012 1059 1
1012 1062 1
1013 1014 1
1013 1058 1
1013 1059 1
1013 1062 1
1015 1016 1
1015 1017 1
1015 1018 1
1016 1017 1
1016 1018 1
1016 1019 1
1016 1021 1
1016 1063 1
1016 1066 1
1016 1067 1
1017 1018 1
1017 1063 1
1017 1066 1
1018 1019 1
1018 1021 1
1019 1020 1
1019 1021 1
1019 1022 1
1020 1021 1
1020 1022 1
1020 1023 1
1020 1025 1
1020 1067 1
1020 1070 1
1020 1071 1
1021 1022 1
1021 1066 1
1021 1067 1
1021 1070 1
1022 1023 1
1022 1025 1
1023 1024 1
1023 1025 1
1023 1026 1
1024 1025 1
1024 1026 1
1024 1027 1
1024 1029 1
1024 1071 1
1024 1074 1
1024 1075 1
1025 1026 1
1025 1070 1
1025 1071 1
1025 1074 1
1026 1027 1
1026 1029 1
1027 1028 1
1027 1029 1
1027 1030 1
1028 1029 1
1028 1030 1
1028 1031 1
1028 1033 1
1028 1075 1
1028 1078 1
1028 1079 1
1029 1030 1
1029 1074 1
1029 1075 1
1029 1078 1
1030 1031 1
1030 1033 1
1031 1032 1
1031 1033 1
1031 1034 1
1032 1033 1
1032 1034 1
1032 1035 1
1032 1037 1
1032 1079 1
1032 1082 1
1032 1083 1
1033 1034 1
1033 1078 1
1033 1079 1
1033 1082 1
1034 1035 1
1034 1037 1
1035 1036 1
1035 1037 1
1035 1038 1
1036 1037 1
1036 1038 1
1036 1039 1
1036 1041 1
1036 1083 1
1036 1086 1
1036 1087 1
1037 1038 1
1037 1082 1
1037 1083 1
1037 1086 1
1038 1039 1
1038 1041 1
1039 1040 1
1039 1041 1
1039 1042 1
1040 1041 1
1040 1042 1
1040 1043 1
1040 1045 1
1040 1087 1
1040 1090 1
1040 1091 1
1041 1042 1
1041 1086 1
1041 1087 1
1041 1090 1
1042 1043 1
1042 1045 1
1043 1044 1
1043 1045 1
1043 1046 1
1044 1045 1
1044 1046 1
1044 1047 1
1044 1049 1
1044 1091 1
1044 1094 1
1044 1095 1
1045 1046 1
1045 1090 1
1045 1091 1
1045 1094 1
1046 1047 1
1046 1049 1
1047 1048 1
1047 1049 1
1047 1050 1
1048 1049 1
1048 1050 1
1048 1051 1
1048 1053 1
1048 1095 1
1048 1098 1
1048 1099 1
1049 1050 1
1049 1094 1
1049 1095 1
1049 1098 1
1050 1051 1
1050 1053 1
1051 1052 1
1051 1053 1
1051 1054 1
1052 1053 1
1052 1054 1
1052 1055 1
1052 1057 1
1052 1099 1
1052 1102 1
1052 1103 1
1053 1054 1
1053 1098 1
1053 1099 1
1053 1102 1
1054 1055 1
1054 1057 1
1055 1056 1
1055 1057 1
1055 1058 1
1056 1057 1
1056 1058 1
1056 1059 1
1056 1061 1
1056 1103 1
1056 1106 1
1056 1107 1
1057 1058 1
1057 1102 1
1057 1103 1
1057 1106 1
1058 1059 1
1058 1061 1
1059 1060 1
1059 1061 1
1059 1062 1
1060 1061 1
1060 1062 1
1060 1107 1
1060 1110 1
1061 1062 1
1061 1106 1
1061 1107 1
1061 1110 1
1063 1064 1
1063 1065 1
1063 1066 1
1064 1065 1
1064 1066 1
1064 1067 1
1064 1069 1
1064 1111 1
1064 1114 1
1064 1115 1
1065 1066 1
1065 1111 1
1065 1114 1
1066 1067 1
1066 1069 1
1067 1068 1
1067 1069 1
1067 1070 1
1068 1069 1
1068 1070 1
1068 1071 1
1068 1073 1
1068 1115 1
1068 1118 1
1068 1119 1
1069 1070 1
1069 1114 1
1069 1115 1
1069 1118 1
1070 1071 1
1070 1073 1
1071 1072 1
1071 1073 1
1071 1074 1
1072 1073 1
1072 1074 1
1072 1075 1
1072 1077 1
1072 1119 1
1072 1122 1
1072 1123 1
1073 1074 1
1073 1118 1
1073 1119 1
1073 1122 1
1074 1075 1
1074 1077 1
1075 1076 1
1075 1077 1
1075 1078 1
1076 1077 1
1076 1078 1
1076 1079 1
1076 1081 1
1076 1123 1
1076 1126 1
1076 1127 1
1077 1078 1
1077 1122 1
1077 1123 1
1077 1126 1
1078 1079 1
1078 1081 1
1079 1080 1
1079 1081 1
1079 1082 1
1080 1081 1
1080 1082 1
1080 1083 1
1080 1085 1
1080 1127 1
1080 1130 1
1080 1131 1
1081 1082 1
1081 1126 1
1081 1127 1
1081 1130 1
1082 1083 1
1082 1085 1
1083 1084 1
1083 1085 1
1083 1086 1
1084 1085 1
1084 1086 1
1084 1087 1
1084 1089 1
1084 1131 1
1084 1134 1
1084 1135 1
1085 1086 1
1085 1130 1
1085 1131 1
1085 1134 1
1086 1087 1
1086 1089 1
1087 1088 1
1087 1089 1
1087 1090 1
1088 1089 1
1088 1090 1
1088 1091 1
1088 1093 1
1088 1135 1
1088 1138 1
1088 1139 1
1089 1090 1
1089 1134 1
1089 1135 1
1089 1138 1
1090 1091 1
1090 1093 1
1091 1092 1
1091 1093 1
1091 1094 1
1092 1093 1
1092 1094 1
1092 1095 1
1092 1097 1
1092 1139 1
1092 1142 1
1092 1143 1
1093 1094 1
1093 1138 1
1093 1139 1
1093 1142 1
1094 1095 1
1094 1097 1
1095 1096 1
1095 1097 1
1095 1098 1
1096 1097 1
1096 1098 1
1096 1099 1
1096 1101 1
1096 1143 1
1096 1146 1
1096 1147 1
1097 1098 1
1097 1142 1
1097 1143 1
1097 1146 1
1098 1099 1
1098 1101 1
1099 1100 1
1099 1101 1
1099 1102 1
1100 1101 1
1100 1102 1
1100 1103 1
1100 1105 1
1100 1147 1
1100 1150 1
1100 1151 1
1101 1102 1
1101 1146 1
1101 1147 1
1101 1150 1
1102 1103 1
1102 1105 1
1103 1104 1
1103 1105 1
1103 1106 1
1104 1105 1
1104 1106 1
1104 1107 1
1104 1109 1
1104 1151 1
1104 1154 1
1104 1155 1
1105 1106 1
1105 1150 1
1105 1151 1
1105 1154 1
1106 1107 1
1106 1109 1
1107 1108 1
1107 1109 1
1107 1110 1
1108 1109 1
1108 1110 1
1108 1155 1
1108 1158 1
1109 1110 1
1109 1154 1
1109 1155 1
1109 1158 1
1111 1112 1
1111 1113 1
1111 1114 1
1112 1113 1
1112 1114 1
1112 1115 1
1112 1117 1
1112 1159 1
1112 1162 1
1112 1163 1
1113 1114 1
1113 1159 1
1113 1162 1
1114 1115 1
1114 1117 1
1115 1116 1
1115 1117 1
1115 1118 1
1116 1117 1
1116 1118 1
1116 1119 1
1116 1121 1
1116 1163 1
1116 1166 1
1116 1167 1
1117 1118 1
1117 1162 1
1117 1163 1
1117 1166 1
1118 1119 1
1118 1121 1
1119 1120 1
1119 1121 1
1119 1122 1
1120 1121 1
1120 1122 1
1120 1123 1
1120 1125 1
1120 1167 1
1120 1170 1
1120 1171 1
1121 1122 1
1121 1166 1
1121 1167 1
1121 1170 1
1122 1123 1
1122 1125 1
1123 1124 1
1123 1125 1
1123 1126 1
1124 1125 1
1124 1126 1
1124 1127 1
1124 1129 1
1124 1171 1
1124 1174 1
1124 1175 1
1125 1126 1
1125 1170 1
1125 1171 1
1125 1174 1
1126 1127 1
1126 1129 1
1127 1128 1
1127 1129 1
1127 1130 1
1128 1129 1
1128 1130 1
1128 1131 1
1128 1133 1
1128 1175 1
1128 1178 1
1128 1179 1
1129 1130 1
1129 1174 1
1129 1175 1
1129 1178 1
1130 1131 1
1130 1133 1
1131 1132 1
1131 1133 1
1131 1134 1
1132 1133 1
1132 1134 1
1132 1135 1
1132 1137 1
1132 1179 1
1132 1182 1
1132 1183 1
1133 1134 1
1133 1178 1
1133 1179 1
1133 1182 1
1134 1135 1
1134 1137 1
1135 1136 1
1135 1137 1
1135 1138 1
1136 1137 1
1136 1138 1
1136 1139 1
1136 1141 1
1136 1183 1
1136 1186 1
1136 1187 1
1137 1138 1
1137 1182 1
1137 1183 1
1137 1186 1
1138 1139 1
1138 1141 1
1139 1140 1
1139 1141 1
1139 1142 1
1140 1141 1
1140 1142 1
1140 1143 1
1140 1145 1
1140 1187 1
1140 1190 1
1140 1191 1
1141 1142 1
1141 1186 1
1141 1187 1
1141 1190 1
1142 1143 1
1142 1145 1
1143 1144 1
1143 1145 1
1143 1146 1
1144 1145 1
1144 1146 1
1144 1147 1
1144 1149 1
1144 1191 1
1144 1194 1
1144 1195 1
1145 1146 1
1145 1190 1
1145 1191 1
1145 1194 1
1146 1147 1
1146 1149 1
1147 1148 1
1147 1149 1
1147 1150 1
1148 1149 1
1148 1150 1
1148 1151 1
1148 1153 1
1148 1195 1
1148 1198 1
1148 1199 1
1149 1150 1
1149 1194 1
1149 1195 1
1149 1198 1
1150 1151 1
1150 1153 1
1151 1152 1
1151 1153 1
1151 1154 1
1152 1153 1
1152 1154 1
1152 1155 1
1152 1157 1
1152 1199 1
1152 1202 1
1152 1203 1
1153 1154 1
1153 1198 1
1153 1199 1
1153 1202 1
1154 1155 1
1154 1157 1
1155 1156 1
1155 1157 1
1155 1158 1
1156 1157 1
1156 1158 1
1156 1203 1
1156 1206 1
1157 1158 1
1157 1202 1
1157 1203 1
1157 1206 1
1159 1160 1
1159 1161 1
1159 1162 1
1160 1161 1
1160 1162 1
1160 1163 1
1160 1165 1
1160 1207 1
1160 1210 1
1160 1211 1
1161 1162 1
1161 1207 1
1161 1210 1
1162 1163 1
1162 1165 1
1163 1164 1
1163 1165 1
1163 1166 1
1164 1165 1
1164 1166 1
1164 1167 1
1164 1169 1
1164 1211 1
1164 1214 1
1164 1215 1
1165 1166 1
1165 1210 1
1165 1211 1
1165 1214 1
1166 1167 1
1166 1169 1
1167 1168 1
1167 1169 1
1167 1170 1
1168 1169 1
1168 1170 1
1168 1171 1
1168 1173 1
1168 1215 1
1168 1218 1
1168 1219 1
1169 1170 1
1169 1214 1
1169 1215 1
1169 1218 1
1170 1171 1
1170 1173 1
1171 1172 1
1171 1173 1
1171 1174 1
1172 1173 1
1172 1174 1
1172 1175 1
1172 1177 1
1172 1219 1
1172 1222 1
1172 1223 1
1173 1174 1
1173 1218 1
1173 1219 1
1173 1222 1
1174 1175 1
1174 1177 1
1175 1176 1
1175 1177 1
1175 1178 1
1176 1177 1
1176 1178 1
1176 1179 1
1176 1181 1
1176 1223 1
1176 1226 1
1176 1227 1
1177 1178 1
1177 1222 1
1177 1223 1
1177 1226 1
1178 1179 1
1178 1181 1
1179 1180 1
1179 1181 1
1179 1182 1
1180 1181 1
1180 1182 1
1180 1183 1
1180 1185 1
1180 1227 1
1180 1230 1
1180 1231 1
1181 1182 1
1181 1226 1
1181 1227 1
1181 1230 1
1182 1183 1
1182 1185 1
1183 1184 1
1183 1185 1
1183 1186 1
1184 1185 1
1184 1186 1
1184 1187 1
1184 1189 1
1184 1231 1
1184 1234 1
1184 1235 1
1185 1186 1
1185 1230 1
1185 1231 1
1185 1234 1
1186 1187 1
1186 1189 1
1187 1188 1
1187 1189 1
1187 1190 1
1188 1189 1
1188 1190 1
1188 1191 1
1188 1193 1
1188 1235 1
1188 1238 1
1188 1239 1
1189 1190 1
1189 1234 1
1189 1235 1
1189 1238 1
1190 1191 1
1190 1193 1
1191 1192 1
1191 1193 1
1191 1194 1
1192 1193 1
1192 1194 1
1192 1195 1
1192 1197 1
1192 1239 1
1192 1242 1
1192 1243 1
1193 1194 1
1193 1238 1
1193 1239 1
1193 1242 1
1194 1195 1
1194 1197 1
1195 1196 1
1195 1197 1
1195 1198 1
1196 1197 1
1196 1198 1
1196 1199 1
1196 1201 1
1196 1243 1
1196 1246 1
1196 1247 1
1197 1198 1
1197 1242 1
1197 1243 1
1197 1246 1
1198 1199 1
1198 1201 1
1199 1200 1
1199 1201 1
1199 1202 1
1200 1201 1
1200 1202 1
1200 1203 1
1200 1205 1
1200 1247 1
1200 1250 1
1200 1251 1
1201 1202 1
1201 1246 1
1201 1247 1
1201 1250 1
1202 1203 1
1202 1205 1
1203 1204 1
1203 1205 1
1203 1206 1
1204 1205 1
1204 1206 1
1204 1251 1
1204 1254 1
1205 1206 1
1205 1250 1
1205 1251 1
1205 1254 1
1207 1208 1
1207 1209 1
1207 1210 1
1208 1209 1
1208 1210 1
1208 1211 1
1208 1213 1
1208 1255 1
1208 1258 1
1208 1259 1
1209 1210 1
1209 1255 1
1209 1258 1
1210 1211 1
1210 1213 1
1211 1212 1
1211 1213 1
1211 1214 1
1212 1213 1
1212 1214 1
1212 1215 1
1212 1217 1
1212 1259 1
1212 1262 1
1212 1263 1
1213 1214 1
1213 1258 1
1213 1259 1
1213 1262 1
1214 1215 1
1214 1217 1
1215 1216 1
1215 1217 1
1215 1218 1
1216 1217 1
1216 1218 1
1216 1219 1
1216 1221 1
1216 1263 1
1216 1266 1
1216 1267 1
1217 1218 1
1217 1262 1
1217 1263 1
1217 1266 1
1218 1219 1
1218 1221 1
1219 1220 1
1219 1221 1
1219 1222 1
1220 1221 1
1220 1222 1
1220 1223 1
1220 1225 1
1220 1267 1
1220 1270 1
1220 1271 1
1221 1222 1
1221 1266 1
1221 1267 1
1221 1270 1
1222 1223 1
1222 1225 1
1223 1224 1
1223 1225 1
1223 1226 1
1224 1225 1
1224 1226 1
1224 1227 1
1224 1229 1
1224 1271 1
1224 1274 1
1224 1275 1
1225 1226 1
1225 1270 1
1225 1271 1
1225 1274 1
1226 1227 1
1226 1229 1
1227 1228 1
1227 1229 1
1227 1230 1
1228 1229 1
1228 1230 1
1228 1231 1
1228 1233 1
1228 1275 1
1228 1278 1
1228 1279 1
1229 1230 1
1229 1274 1
1229 1275 1
1229 1278 1
1230 1231 1
1230 1233 1
1231 1232 1
1231 1233 1
1231 1234 1
1232 1233 1
1232 1234 1
1232 1235 1
1232 1237 1
1232 1279 1
1232 1282 1
1232 1283 1
1233 1234 1
1233 1278 1
1233 1279 1
1233 1282 1
1234 1235 1
1234 1237 1
1235 1236 1
1235 1237 1
1235 1238 1
1236 1237 1
1236 1238 1
1236 1239 1
1236 1241 1
1236 1283 1
1236 1286 1
1236 1287 1
1237 1238 1
1237 1282 1
1237 1283 1
1237 1286 1
1238 1239 1
1238 1241 1
1239 1240 1
1239 1241 1
1239 1242 1
1240 1241 1
1240 1242 1
1240 1243 1
1240 1245 1
1240 1287 1
1240 1290 1
1240 1291 1
1241 1242 1
1241 1286 1
1241 1287 1
1241 1290 1
1242 1243 1
1242 1245 1
1243 1244 1
1243 1245 1
1243 1246 1
1244 1245 1
1244 1246 1
1244 1247 1
1244 1249 1
1244 1291 1
1244 1294 1
1244 1295 1
1245 1246 1
1245 1290 1
1245 1291 1
1245 1294 1
1246 1247 1
1246 1249 1
1247 1248 1
1247 1249 1
1247 1250 1
1248 1249 1
1248 1250 1
1248 1251 1
1248 1253 1
1248 1295 1
1248 1298 1
1248 1299 1
1249 1250 1
1249 1294 1
1249 1295 1
1249 1298 1
1250 1251 1
1250 1253 1
1251 1252 1
1251 1253 1
1251 1254 1
1252 1253 1
1252 1254 1
1252 1299 1
1252 1302 1
1253 1254 1
1253 1298 1
1253 1299 1
1253 1302 1
1255 1256 1
1255 1257 1
1255 1258 1
1256 1257 1
1256 1258 1
1256 1259 1
1256 1261 1
1257 1258 1
1258 1259 1
1258 1261 1
1259 1260 1
1259 1261 1
1259 1262 1
1260 1261 1
1260 1262 1
1260 1263 1
1260 1265 1
1261 1262 1
1262 1263 1
1262 1265 1
1263 1264 1
1263 1265 1
1263 1266 1
1264 1265 1
1264 1266 1
1264 1267 1
1264 1269 1
1265 1266 1
1266 1267 1
1266 1269 1
1267 1268 1
1267 1269 1
1267 1270 1
1268 1269 1
1268 1270 1
1268 1271 1
1268 1273 1
1269 1270 1
1270 1271 1
1270 1273 1
1271 1272 1
1271 1273 1
1271 1274 1
1272 1273 1
1272 1274 1
1272 1275 1
1272 1277 1
1273 1274 1
1274 1275 1
1274 1277 1
1275 1276 1
1275 1277 1
1275 1278 1
1276 1277 1
1276 1278 1
1276 1279 1
1276 1281 1
1277 1278 1
1278 1279 1
1278 1281 1
1279 1280 1
1279 1281 1
1279 1282 1
1280 1281 1
1280 1282 1
1280 1283 1
1280 1285 1
1281 1282 1
1282 1283 1
1282 1285 1
1283 1284 1
1283 1285 1
1283 1286 1
1284 1285 1
1284 1286 1
1284 1287 1
1284 1289 1
1285 1286 1
1286 1287 1
1286 1289 1
1287 1288 1
1287 1289 1
1287 1290 1
1288 1289 1
1288 1290 1
1288 1291 1
1288 1293 1
1289 1290 1
1290 1291 1
1290 1293 1
1291 1292 1
1291 1293 1
1291 1294 1
1292 1293 1
1292 1294 1
1292 1295 1
1292 1297 1
1293 1294 1
1294 1295 1
1294 1297 1
1295 1296 1
1295 1297 1
1295 1298 1
1296 1297 1
1296 1298 1
1296 1299 1
1296 1301 1
1297 1298 1
1298 1299 1
1298 1301 1
1299 1300 1
1299 1301 1
1299 1302 1
1300 1301 1
1300 1302 1
1301 1302 1
;sub-graft
1 781 1
7 877 1
13 973 1
19 1069 1
25 1214 1
31 790 1
37 885 1
43 981 1
49 1126 1
55 1222 1
61 798 1
67 894 1
73 993 1
79 1134 1
85 1230 1
91 806 1
97 905 1
103 1001 1
109 1097 1
115 1238 1
121 817 1
127 913 1
133 1009 1
139 1105 1
145 1249 1

[ angles ]
1 2 3 2
2 3 4 2
3 4 5 2
4 5 6 2
7 8 9 2
8 9 10 2
9 10 11 2
10 11 12 2
13 14 15 2
14 15 16 2
15 16 17 2
16 17 18 2
19 20 21 2
20 21 22 2
21 22 23 2
22 23 24 2
25 26 27 2
26 27 28 2
27 28 29 2
28 29 30 2
31 32 33 2
32 33 34 2
33 34 35 2
34 35 36 2
37 38 39 2
38 39 40 2
39 40 41 2
40 41 42 2
43 44 45 2
44 45 46 2
45 46 47 2
46 47 48 2
49 50 51 2
50 51 52 2
51 52 53 2
52 53 54 2
55 56 57 2
56 57 58 2
57 58 59 2
58 59 60 2
61 62 63 2
62 63 64 2
63 64 65 2
64 65 66 2
67 68 69 2
68 69 70 2
69 70 71 2
70 71 72 2
73 74 75 2
74 75 76 2
75 76 77 2
76 77 78 2
79 80 81 2
80 81 82 2
81 82 83 2
82 83 84 2
85 86 87 2
86 87 88 2
87 88 89 2
88 89 90 2
91 92 93 2
92 93 94 2
93 94 95 2
94 95 96 2
97 98 99 2
98 99 100 2
99 100 101 2
100 101 102 2
103 104 105 2
104 105 106 2
105 106 107 2
106 107 108 2
109 110 111 2
110 111 112 2
111 112 113 2
112 113 114 2
115 116 117 2
116 117 118 2
117 118 119 2
118 119 120 2
121 122 123 2
122 123 124 2
123 124 125 2
124 125 126 2
127 128 129 2
128 129 130 2
129 130 131 2
130 131 132 2
133 134 135 2
134 135 136 2
135 136 137 2
136 137 138 2
139 140 141 2
140 141 142 2
141 142 143 2
142 143 144 2
145 146 147 2
146 147 148 2
147 148 149 2
148 149 150 2

[ dihedrals ]

[ pairs ]
;from 1-4 pair
