Write by polyGraft 
 1302
    1   PE   C1    1   0.408   0.612   0.877
    1   PE   C2    2   0.408   0.612   1.347
    1   PE   C3    3   0.408   0.612   1.817
    1   PE   C4    4   0.408   0.612   2.287
    1   PE   C5    5   0.408   0.612   2.757
    1   PE   C6    6   0.408   0.612   3.227
    1   PE   C1    7   0.408   1.428   0.877
    1   PE   C2    8   0.408   1.428   1.347
    1   PE   C3    9   0.408   1.428   1.817
    1   PE   C4   10   0.408   1.428   2.287
    1   PE   C5   11   0.408   1.428   2.757
    1   PE   C6   12   0.408   1.428   3.227
    1   PE   C1   13   0.408   2.244   0.877
    1   PE   C2   14   0.408   2.244   1.347
    1   PE   C3   15   0.408   2.244   1.817
    1   PE   C4   16   0.408   2.244   2.287
    1   PE   C5   17   0.408   2.244   2.757
    1   PE   C6   18   0.408   2.244   3.227
    1  PEO  EO1   19   0.408   3.060   0.877
    1  PEO  EO2   20   0.408   3.060   1.207
    1  PEO  EO3   21   0.408   3.060   1.537
    1  PEO  EO4   22   0.408   3.060   1.867
    1  PEO  EO5   23   0.408   3.060   2.197
    1  PEO  EO6   24   0.408   3.060   2.527
    1   PE   C1   25   0.612   4.080   0.877
    1   PE   C2   26   0.612   4.080   1.347
    1   PE   C3   27   0.612   4.080   1.817
    1   PE   C4   28   0.612   4.080   2.287
    1   PE   C5   29   0.612   4.080   2.757
    1   PE   C6   30   0.612   4.080   3.227
    1  PEO  EO1   31   1.428   0.408   0.877
    1  PEO  EO2   32   1.428   0.408   1.207
    1  PEO  EO3   33   1.428   0.408   1.537
    1  PEO  EO4   34   1.428   0.408   1.867
    1  PEO  EO5   35   1.428   0.408   2.197
    1  PEO  EO6   36   1.428   0.408   2.527
    1   PE   C1   37   1.224   1.428   0.877
    1   PE   C2   38   1.224   1.428   1.347
    1   PE   C3   39   1.224   1.428   1.817
    1   PE   C4   40   1.224   1.428   2.287
    1   PE   C5   41   1.224   1.428   2.757
    1   PE   C6   42   1.224   1.428   3.227
    1  PEO  EO1   43   1.224   2.244   0.877
    1  PEO  EO2   44   1.224   2.244   1.207
    1  PEO  EO3   45   1.224   2.244   1.537
    1  PEO  EO4   46   1.224   2.244   1.867
    1  PEO  EO5   47   1.224   2.244   2.197
    1  PEO  EO6   48   1.224   2.244   2.527
    1  PEO  EO1   49   1.428   3.264   0.877
    1  PEO  EO2   50   1.428   3.264   1.207
    1  PEO  EO3   51   1.428   3.264   1.537
    1  PEO  EO4   52   1.428   3.264   1.867
    1  PEO  EO5   53   1.428   3.264   2.197
    1  PEO  EO6   54   1.428   3.264   2.527
    1  PEO  EO1   55   1.428   4.080   0.877
    1  PEO  EO2   56   1.428   4.080   1.207
    1  PEO  EO3   57   1.428   4.080   1.537
    1  PEO  EO4   58   1.428   4.080   1.867
    1  PEO  EO5   59   1.428   4.080   2.197
    1  PEO  EO6   60   1.428   4.080   2.527
    1   PE   C1   61   2.244   0.408   0.877
    1   PE   C2   62   2.244   0.408   1.347
    1   PE   C3   63   2.244   0.408   1.817
    1   PE   C4   64   2.244   0.408   2.287
    1   PE   C5   65   2.244   0.408   2.757
    1   PE   C6   66   2.244   0.408   3.227
    1   PE   C1   67   2.244   1.224   0.877
    1   PE   C2   68   2.244   1.224   1.347
    1   PE   C3   69   2.244   1.224   1.817
    1   PE   C4   70   2.244   1.224   2.287
    1   PE   C5   71   2.244   1.224   2.757
    1   PE   C6   72   2.244   1.224   3.227
    1   PE   C1   73   2.448   2.244   0.877
    1   PE   C2   74   2.448   2.244   1.347
    1   PE   C3   75   2.448   2.244   1.817
    1   PE   C4   76   2.448   2.244   2.287
    1   PE   C5   77   2.448   2.244   2.757
    1   PE   C6   78   2.448   2.244   3.227
    1   PE   C1   79   2.244   3.264   0.877
    1   PE   C2   80   2.244   3.264   1.347
    1   PE   C3   81   2.244   3.264   1.817
    1   PE   C4   82   2.244   3.264   2.287
    1   PE   C5   83   2.244   3.264   2.757
    1   PE   C6   84   2.244   3.264   3.227
    1  PEO  EO1   85   2.244   4.080   0.877
    1  PEO  EO2   86   2.244   4.080   1.207
    1  PEO  EO3   87   2.244   4.080   1.537
    1  PEO  EO4   88   2.244   4.080   1.867
    1  PEO  EO5   89   2.244   4.080   2.197
    1  PEO  EO6   90   2.244   4.080   2.527
    1  PEO  EO1   91   3.060   0.408   0.877
    1  PEO  EO2   92   3.060   0.408   1.207
    1  PEO  EO3   93   3.060   0.408   1.537
    1  PEO  EO4   94   3.060   0.408   1.867
    1  PEO  EO5   95   3.060   0.408   2.197
    1  PEO  EO6   96   3.060   0.408   2.527
    1  PEO  EO1   97   3.264   1.428   0.877
    1  PEO  EO2   98   3.264   1.428   1.207
    1  PEO  EO3   99   3.264   1.428   1.537
    1  PEO  EO4  100   3.264   1.428   1.867
    1  PEO  EO5  101   3.264   1.428   2.197
    1  PEO  EO6  102   3.264   1.428   2.527
    1   PE   C1  103   3.264   2.244   0.877
    1   PE   C2  104   3.264   2.244   1.347
    1   PE   C3  105   3.264   2.244   1.817
    1   PE   C4  106   3.264   2.244   2.287
    1   PE   C5  107   3.264   2.244   2.757
    1   PE   C6  108   3.264   2.244   3.227
    1   PE   C1  109   3.264   3.060   0.877
    1   PE   C2  110   3.264   3.060   1.347
    1   PE   C3  111   3.264   3.060   1.817
    1   PE   C4  112   3.264   3.060   2.287
    1   PE   C5  113   3.264   3.060   2.757
    1   PE   C6  114   3.264   3.060   3.227
    1   PE   C1  115   3.060   4.080   0.877
    1   PE   C2  116   3.060   4.080   1.347
    1   PE   C3  117   3.060   4.080   1.817
    1   PE   C4  118   3.060   4.080   2.287
    1   PE   C5  119   3.060   4.080   2.757
    1   PE   C6  120   3.060   4.080   3.227
    1   PE   C1  121   4.080   0.612   0.877
    1   PE   C2  122   4.080   0.612   1.347
    1   PE   C3  123   4.080   0.612   1.817
    1   PE   C4  124   4.080   0.612   2.287
    1   PE   C5  125   4.080   0.612   2.757
    1   PE   C6  126   4.080   0.612   3.227
    1  PEO  EO1  127   4.080   1.428   0.877
    1  PEO  EO2  128   4.080   1.428   1.207
    1  PEO  EO3  129   4.080   1.428   1.537
    1  PEO  EO4  130   4.080   1.428   1.867
    1  PEO  EO5  131   4.080   1.428   2.197
    1  PEO  EO6  132   4.080   1.428   2.527
    1  PEO  EO1  133   4.080   2.244   0.877
    1  PEO  EO2  134   4.080   2.244   1.207
    1  PEO  EO3  135   4.080   2.244   1.537
    1  PEO  EO4  136   4.080   2.244   1.867
    1  PEO  EO5  137   4.080   2.244   2.197
    1  PEO  EO6  138   4.080   2.244   2.527
    1   PE   C1  139   4.080   3.060   0.877
    1   PE   C2  140   4.080   3.060   1.347
    1   PE   C3  141   4.080   3.060   1.817
    1   PE   C4  142   4.080   3.060   2.287
    1   PE   C5  143   4.080   3.060   2.757
    1   PE   C6  144   4.080   3.060   3.227
    1   PE   C1  145   4.080   4.284   0.877
    1   PE   C2  146   4.080   4.284   1.347
    1   PE   C3  147   4.080   4.284   1.817
    1   PE   C4  148   4.080   4.284   2.287
    1   PE   C5  149   4.080   4.284   2.757
    1   PE   C6  150   4.080   4.284   3.227
    1  LAT   Au  151   0.000   0.000   0.000
    2  LAT   Au  152   0.204   0.204   0.000
    3  LAT   Au  153   0.000   0.204   0.204
    4  LAT   Au  154   0.204   0.000   0.204
    5  LAT   Au  155   0.408   0.000   0.000
    6  LAT   Au  156   0.612   0.204   0.000
    7  LAT   Au  157   0.408   0.204   0.204
    8  LAT   Au  158   0.612   0.000   0.204
    9  LAT   Au  159   0.816   0.000   0.000
   10  LAT   Au  160   1.020   0.204   0.000
   11  LAT   Au  161   0.816   0.204   0.204
   12  LAT   Au  162   1.020   0.000   0.204
   13  LAT   Au  163   1.224   0.000   0.000
   14  LAT   Au  164   1.428   0.204   0.000
   15  LAT   Au  165   1.224   0.204   0.204
   16  LAT   Au  166   1.428   0.000   0.204
   17  LAT   Au  167   1.632   0.000   0.000
   18  LAT   Au  168   1.836   0.204   0.000
   19  LAT   Au  169   1.632   0.204   0.204
   20  LAT   Au  170   1.836   0.000   0.204
   21  LAT   Au  171   2.040   0.000   0.000
   22  LAT   Au  172   2.244   0.204   0.000
   23  LAT   Au  173   2.040   0.204   0.204
   24  LAT   Au  174   2.244   0.000   0.204
   25  LAT   Au  175   2.448   0.000   0.000
   26  LAT   Au  176   2.652   0.204   0.000
   27  LAT   Au  177   2.448   0.204   0.204
   28  LAT   Au  178   2.652   0.000   0.204
   29  LAT   Au  179   2.856   0.000   0.000
   30  LAT   Au  180   3.060   0.204   0.000
   31  LAT   Au  181   2.856   0.204   0.204
   32  LAT   Au  182   3.060   0.000   0.204
   33  LAT   Au  183   3.264   0.000   0.000
   34  LAT   Au  184   3.468   0.204   0.000
   35  LAT   Au  185   3.264   0.204   0.204
   36  LAT   Au  186   3.468   0.000   0.204
   37  LAT   Au  187   3.672   0.000   0.000
   38  LAT   Au  188   3.876   0.204   0.000
   39  LAT   Au  189   3.672   0.204   0.204
   40  LAT   Au  190   3.876   0.000   0.204
   41  LAT   Au  191   4.080   0.000   0.000
   42  LAT   Au  192   4.284   0.204   0.000
   43  LAT   Au  193   4.080   0.204   0.204
   44  LAT   Au  194   4.284   0.000   0.204
   45  LAT   Au  195   4.488   0.000   0.000
   46  LAT   Au  196   4.692   0.204   0.000
   47  LAT   Au  197   4.488   0.204   0.204
   48  LAT   Au  198   4.692   0.000   0.204
   49  LAT   Au  199   0.000   0.408   0.000
   50  LAT   Au  200   0.204   0.612   0.000
   51  LAT   Au  201   0.000   0.612   0.204
   52  LAT   Au  202   0.204   0.408   0.204
   53  LAT   Au  203   0.408   0.408   0.000
   54  LAT   Au  204   0.612   0.612   0.000
   55  LAT   Au  205   0.408   0.612   0.204
   56  LAT   Au  206   0.612   0.408   0.204
   57  LAT   Au  207   0.816   0.408   0.000
   58  LAT   Au  208   1.020   0.612   0.000
   59  LAT   Au  209   0.816   0.612   0.204
   60  LAT   Au  210   1.020   0.408   0.204
   61  LAT   Au  211   1.224   0.408   0.000
   62  LAT   Au  212   1.428   0.612   0.000
   63  LAT   Au  213   1.224   0.612   0.204
   64  LAT   Au  214   1.428   0.408   0.204
   65  LAT   Au  215   1.632   0.408   0.000
   66  LAT   Au  216   1.836   0.612   0.000
   67  LAT   Au  217   1.632   0.612   0.204
   68  LAT   Au  218   1.836   0.408   0.204
   69  LAT   Au  219   2.040   0.408   0.000
   70  LAT   Au  220   2.244   0.612   0.000
   71  LAT   Au  221   2.040   0.612   0.204
   72  LAT   Au  222   2.244   0.408   0.204
   73  LAT   Au  223   2.448   0.408   0.000
   74  LAT   Au  224   2.652   0.612   0.000
   75  LAT   Au  225   2.448   0.612   0.204
   76  LAT   Au  226   2.652   0.408   0.204
   77  LAT   Au  227   2.856   0.408   0.000
   78  LAT   Au  228   3.060   0.612   0.000
   79  LAT   Au  229   2.856   0.612   0.204
   80  LAT   Au  230   3.060   0.408   0.204
   81  LAT   Au  231   3.264   0.408   0.000
   82  LAT   Au  232   3.468   0.612   0.000
   83  LAT   Au  233   3.264   0.612   0.204
   84  LAT   Au  234   3.468   0.408   0.204
   85  LAT   Au  235   3.672   0.408   0.000
   86  LAT   Au  236   3.876   0.612   0.000
   87  LAT   Au  237   3.672   0.612   0.204
   88  LAT   Au  238   3.876   0.408   0.204
   89  LAT   Au  239   4.080   0.408   0.000
   90  LAT   Au  240   4.284   0.612   0.000
   91  LAT   Au  241   4.080   0.612   0.204
   92  LAT   Au  242   4.284   0.408   0.204
   93  LAT   Au  243   4.488   0.408   0.000
   94  LAT   Au  244   4.692   0.612   0.000
   95  LAT   Au  245   4.488   0.612   0.204
   96  LAT   Au  246   4.692   0.408   0.204
   97  LAT   Au  247   0.000   0.816   0.000
   98  LAT   Au  248   0.204   1.020   0.000
   99  LAT   Au  249   0.000   1.020   0.204
  100  LAT   Au  250   0.204   0.816   0.204
  101  LAT   Au  251   0.408   0.816   0.000
  102  LAT   Au  252   0.612   1.020   0.000
  103  LAT   Au  253   0.408   1.020   0.204
  104  LAT   Au  254   0.612   0.816   0.204
  105  LAT   Au  255   0.816   0.816   0.000
  106  LAT   Au  256   1.020   1.020   0.000
  107  LAT   Au  257   0.816   1.020   0.204
  108  LAT   Au  258   1.020   0.816   0.204
  109  LAT   Au  259   1.224   0.816   0.000
  110  LAT   Au  260   1.428   1.020   0.000
  111  LAT   Au  261   1.224   1.020   0.204
  112  LAT   Au  262   1.428   0.816   0.204
  113  LAT   Au  263   1.632   0.816   0.000
  114  LAT   Au  264   1.836   1.020   0.000
  115  LAT   Au  265   1.632   1.020   0.204
  116  LAT   Au  266   1.836   0.816   0.204
  117  LAT   Au  267   2.040   0.816   0.000
  118  LAT   Au  268   2.244   1.020   0.000
  119  LAT   Au  269   2.040   1.020   0.204
  120  LAT   Au  270   2.244   0.816   0.204
  121  LAT   Au  271   2.448   0.816   0.000
  122  LAT   Au  272   2.652   1.020   0.000
  123  LAT   Au  273   2.448   1.020   0.204
  124  LAT   Au  274   2.652   0.816   0.204
  125  LAT   Au  275   2.856   0.816   0.000
  126  LAT   Au  276   3.060   1.020   0.000
  127  LAT   Au  277   2.856   1.020   0.204
  128  LAT   Au  278   3.060   0.816   0.204
  129  LAT   Au  279   3.264   0.816   0.000
  130  LAT   Au  280   3.468   1.020   0.000
  131  LAT   Au  281   3.264   1.020   0.204
  132  LAT   Au  282   3.468   0.816   0.204
  133  LAT   Au  283   3.672   0.816   0.000
  134  LAT   Au  284   3.876   1.020   0.000
  135  LAT   Au  285   3.672   1.020   0.204
  136  LAT   Au  286   3.876   0.816   0.204
  137  LAT   Au  287   4.080   0.816   0.000
  138  LAT   Au  288   4.284   1.020   0.000
  139  LAT   Au  289   4.080   1.020   0.204
  140  LAT   Au  290   4.284   0.816   0.204
  141  LAT   Au  291   4.488   0.816   0.000
  142  LAT   Au  292   4.692   1.020   0.000
  143  LAT   Au  293   4.488   1.020   0.204
  144  LAT   Au  294   4.692   0.816   0.204
  145  LAT   Au  295   0.000   1.224   0.000
  146  LAT   Au  296   0.204   1.428   0.000
  147  LAT   Au  297   0.000   1.428   0.204
  148  LAT   Au  298   0.204   1.224   0.204
  149  LAT   Au  299   0.408   1.224   0.000
  150  LAT   Au  300   0.612   1.428   0.000
  151  LAT   Au  301   0.408   1.428   0.204
  152  LAT   Au  302   0.612   1.224   0.204
  153  LAT   Au  303   0.816   1.224   0.000
  154  LAT   Au  304   1.020   1.428   0.000
  155  LAT   Au  305   0.816   1.428   0.204
  156  LAT   Au  306   1.020   1.224   0.204
  157  LAT   Au  307   1.224   1.224   0.000
  158  LAT   Au  308   1.428   1.428   0.000
  159  LAT   Au  309   1.224   1.428   0.204
  160  LAT   Au  310   1.428   1.224   0.204
  161  LAT   Au  311   1.632   1.224   0.000
  162  LAT   Au  312   1.836   1.428   0.000
  163  LAT   Au  313   1.632   1.428   0.204
  164  LAT   Au  314   1.836   1.224   0.204
  165  LAT   Au  315   2.040   1.224   0.000
  166  LAT   Au  316   2.244   1.428   0.000
  167  LAT   Au  317   2.040   1.428   0.204
  168  LAT   Au  318   2.244   1.224   0.204
  169  LAT   Au  319   2.448   1.224   0.000
  170  LAT   Au  320   2.652   1.428   0.000
  171  LAT   Au  321   2.448   1.428   0.204
  172  LAT   Au  322   2.652   1.224   0.204
  173  LAT   Au  323   2.856   1.224   0.000
  174  LAT   Au  324   3.060   1.428   0.000
  175  LAT   Au  325   2.856   1.428   0.204
  176  LAT   Au  326   3.060   1.224   0.204
  177  LAT   Au  327   3.264   1.224   0.000
  178  LAT   Au  328   3.468   1.428   0.000
  179  LAT   Au  329   3.264   1.428   0.204
  180  LAT   Au  330   3.468   1.224   0.204
  181  LAT   Au  331   3.672   1.224   0.000
  182  LAT   Au  332   3.876   1.428   0.000
  183  LAT   Au  333   3.672   1.428   0.204
  184  LAT   Au  334   3.876   1.224   0.204
  185  LAT   Au  335   4.080   1.224   0.000
  186  LAT   Au  336   4.284   1.428   0.000
  187  LAT   Au  337   4.080   1.428   0.204
  188  LAT   Au  338   4.284   1.224   0.204
  189  LAT   Au  339   4.488   1.224   0.000
  190  LAT   Au  340   4.692   1.428   0.000
  191  LAT   Au  341   4.488   1.428   0.204
  192  LAT   Au  342   4.692   1.224   0.204
  193  LAT   Au  343   0.000   1.632   0.000
  194  LAT   Au  344   0.204   1.836   0.000
  195  LAT   Au  345   0.000   1.836   0.204
  196  LAT   Au  346   0.204   1.632   0.204
  197  LAT   Au  347   0.408   1.632   0.000
  198  LAT   Au  348   0.612   1.836   0.000
  199  LAT   Au  349   0.408   1.836   0.204
  200  LAT   Au  350   0.612   1.632   0.204
  201  LAT   Au  351   0.816   1.632   0.000
  202  LAT   Au  352   1.020   1.836   0.000
  203  LAT   Au  353   0.816   1.836   0.204
  204  LAT   Au  354   1.020   1.632   0.204
  205  LAT   Au  355   1.224   1.632   0.000
  206  LAT   Au  356   1.428   1.836   0.000
  207  LAT   Au  357   1.224   1.836   0.204
  208  LAT   Au  358   1.428   1.632   0.204
  209  LAT   Au  359   1.632   1.632   0.000
  210  LAT   Au  360   1.836   1.836   0.000
  211  LAT   Au  361   1.632   1.836   0.204
  212  LAT   Au  362   1.836   1.632   0.204
  213  LAT   Au  363   2.040   1.632   0.000
  214  LAT   Au  364   2.244   1.836   0.000
  215  LAT   Au  365   2.040   1.836   0.204
  216  LAT   Au  366   2.244   1.632   0.204
  217  LAT   Au  367   2.448   1.632   0.000
  218  LAT   Au  368   2.652   1.836   0.000
  219  LAT   Au  369   2.448   1.836   0.204
  220  LAT   Au  370   2.652   1.632   0.204
  221  LAT   Au  371   2.856   1.632   0.000
  222  LAT   Au  372   3.060   1.836   0.000
  223  LAT   Au  373   2.856   1.836   0.204
  224  LAT   Au  374   3.060   1.632   0.204
  225  LAT   Au  375   3.264   1.632   0.000
  226  LAT   Au  376   3.468   1.836   0.000
  227  LAT   Au  377   3.264   1.836   0.204
  228  LAT   Au  378   3.468   1.632   0.204
  229  LAT   Au  379   3.672   1.632   0.000
  230  LAT   Au  380   3.876   1.836   0.000
  231  LAT   Au  381   3.672   1.836   0.204
  232  LAT   Au  382   3.876   1.632   0.204
  233  LAT   Au  383   4.080   1.632   0.000
  234  LAT   Au  384   4.284   1.836   0.000
  235  LAT   Au  385   4.080   1.836   0.204
  236  LAT   Au  386   4.284   1.632   0.204
  237  LAT   Au  387   4.488   1.632   0.000
  238  LAT   Au  388   4.692   1.836   0.000
  239  LAT   Au  389   4.488   1.836   0.204
  240  LAT   Au  390   4.692   1.632   0.204
  241  LAT   Au  391   0.000   2.040   0.000
  242  LAT   Au  392   0.204   2.244   0.000
  243  LAT   Au  393   0.000   2.244   0.204
  244  LAT   Au  394   0.204   2.040   0.204
  245  LAT   Au  395   0.408   2.040   0.000
  246  LAT   Au  396   0.612   2.244   0.000
  247  LAT   Au  397   0.408   2.244   0.204
  248  LAT   Au  398   0.612   2.040   0.204
  249  LAT   Au  399   0.816   2.040   0.000
  250  LAT   Au  400   1.020   2.244   0.000
  251  LAT   Au  401   0.816   2.244   0.204
  252  LAT   Au  402   1.020   2.040   0.204
  253  LAT   Au  403   1.224   2.040   0.000
  254  LAT   Au  404   1.428   2.244   0.000
  255  LAT   Au  405   1.224   2.244   0.204
  256  LAT   Au  406   1.428   2.040   0.204
  257  LAT   Au  407   1.632   2.040   0.000
  258  LAT   Au  408   1.836   2.244   0.000
  259  LAT   Au  409   1.632   2.244   0.204
  260  LAT   Au  410   1.836   2.040   0.204
  261  LAT   Au  411   2.040   2.040   0.000
  262  LAT   Au  412   2.244   2.244   0.000
  263  LAT   Au  413   2.040   2.244   0.204
  264  LAT   Au  414   2.244   2.040   0.204
  265  LAT   Au  415   2.448   2.040   0.000
  266  LAT   Au  416   2.652   2.244   0.000
  267  LAT   Au  417   2.448   2.244   0.204
  268  LAT   Au  418   2.652   2.040   0.204
  269  LAT   Au  419   2.856   2.040   0.000
  270  LAT   Au  420   3.060   2.244   0.000
  271  LAT   Au  421   2.856   2.244   0.204
  272  LAT   Au  422   3.060   2.040   0.204
  273  LAT   Au  423   3.264   2.040   0.000
  274  LAT   Au  424   3.468   2.244   0.000
  275  LAT   Au  425   3.264   2.244   0.204
  276  LAT   Au  426   3.468   2.040   0.204
  277  LAT   Au  427   3.672   2.040   0.000
  278  LAT   Au  428   3.876   2.244   0.000
  279  LAT   Au  429   3.672   2.244   0.204
  280  LAT   Au  430   3.876   2.040   0.204
  281  LAT   Au  431   4.080   2.040   0.000
  282  LAT   Au  432   4.284   2.244   0.000
  283  LAT   Au  433   4.080   2.244   0.204
  284  LAT   Au  434   4.284   2.040   0.204
  285  LAT   Au  435   4.488   2.040   0.000
  286  LAT   Au  436   4.692   2.244   0.000
  287  LAT   Au  437   4.488   2.244   0.204
  288  LAT   Au  438   4.692   2.040   0.204
  289  LAT   Au  439   0.000   2.448   0.000
  290  LAT   Au  440   0.204   2.652   0.000
  291  LAT   Au  441   0.000   2.652   0.204
  292  LAT   Au  442   0.204   2.448   0.204
  293  LAT   Au  443   0.408   2.448   0.000
  294  LAT   Au  444   0.612   2.652   0.000
  295  LAT   Au  445   0.408   2.652   0.204
  296  LAT   Au  446   0.612   2.448   0.204
  297  LAT   Au  447   0.816   2.448   0.000
  298  LAT   Au  448   1.020   2.652   0.000
  299  LAT   Au  449   0.816   2.652   0.204
  300  LAT   Au  450   1.020   2.448   0.204
  301  LAT   Au  451   1.224   2.448   0.000
  302  LAT   Au  452   1.428   2.652   0.000
  303  LAT   Au  453   1.224   2.652   0.204
  304  LAT   Au  454   1.428   2.448   0.204
  305  LAT   Au  455   1.632   2.448   0.000
  306  LAT   Au  456   1.836   2.652   0.000
  307  LAT   Au  457   1.632   2.652   0.204
  308  LAT   Au  458   1.836   2.448   0.204
  309  LAT   Au  459   2.040   2.448   0.000
  310  LAT   Au  460   2.244   2.652   0.000
  311  LAT   Au  461   2.040   2.652   0.204
  312  LAT   Au  462   2.244   2.448   0.204
  313  LAT   Au  463   2.448   2.448   0.000
  314  LAT   Au  464   2.652   2.652   0.000
  315  LAT   Au  465   2.448   2.652   0.204
  316  LAT   Au  466   2.652   2.448   0.204
  317  LAT   Au  467   2.856   2.448   0.000
  318  LAT   Au  468   3.060   2.652   0.000
  319  LAT   Au  469   2.856   2.652   0.204
  320  LAT   Au  470   3.060   2.448   0.204
  321  LAT   Au  471   3.264   2.448   0.000
  322  LAT   Au  472   3.468   2.652   0.000
  323  LAT   Au  473   3.264   2.652   0.204
  324  LAT   Au  474   3.468   2.448   0.204
  325  LAT   Au  475   3.672   2.448   0.000
  326  LAT   Au  476   3.876   2.652   0.000
  327  LAT   Au  477   3.672   2.652   0.204
  328  LAT   Au  478   3.876   2.448   0.204
  329  LAT   Au  479   4.080   2.448   0.000
  330  LAT   Au  480   4.284   2.652   0.000
  331  LAT   Au  481   4.080   2.652   0.204
  332  LAT   Au  482   4.284   2.448   0.204
  333  LAT   Au  483   4.488   2.448   0.000
  334  LAT   Au  484   4.692   2.652   0.000
  335  LAT   Au  485   4.488   2.652   0.204
  336  LAT   Au  486   4.692   2.448   0.204
  337  LAT   Au  487   0.000   2.856   0.000
  338  LAT   Au  488   0.204   3.060   0.000
  339  LAT   Au  489   0.000   3.060   0.204
  340  LAT   Au  490   0.204   2.856   0.204
  341  LAT   Au  491   0.408   2.856   0.000
  342  LAT   Au  492   0.612   3.060   0.000
  343  LAT   Au  493   0.408   3.060   0.204
  344  LAT   Au  494   0.612   2.856   0.204
  345  LAT   Au  495   0.816   2.856   0.000
  346  LAT   Au  496   1.020   3.060   0.000
  347  LAT   Au  497   0.816   3.060   0.204
  348  LAT   Au  498   1.020   2.856   0.204
  349  LAT   Au  499   1.224   2.856   0.000
  350  LAT   Au  500   1.428   3.060   0.000
  351  LAT   Au  501   1.224   3.060   0.204
  352  LAT   Au  502   1.428   2.856   0.204
  353  LAT   Au  503   1.632   2.856   0.000
  354  LAT   Au  504   1.836   3.060   0.000
  355  LAT   Au  505   1.632   3.060   0.204
  356  LAT   Au  506   1.836   2.856   0.204
  357  LAT   Au  507   2.040   2.856   0.000
  358  LAT   Au  508   2.244   3.060   0.000
  359  LAT   Au  509   2.040   3.060   0.204
  360  LAT   Au  510   2.244   2.856   0.204
  361  LAT   Au  511   2.448   2.856   0.000
  362  LAT   Au  512   2.652   3.060   0.000
  363  LAT   Au  513   2.448   3.060   0.204
  364  LAT   Au  514   2.652   2.856   0.204
  365  LAT   Au  515   2.856   2.856   0.000
  366  LAT   Au  516   3.060   3.060   0.000
  367  LAT   Au  517   2.856   3.060   0.204
  368  LAT   Au  518   3.060   2.856   0.204
  369  LAT   Au  519   3.264   2.856   0.000
  370  LAT   Au  520   3.468   3.060   0.000
  371  LAT   Au  521   3.264   3.060   0.204
  372  LAT   Au  522   3.468   2.856   0.204
  373  LAT   Au  523   3.672   2.856   0.000
  374  LAT   Au  524   3.876   3.060   0.000
  375  LAT   Au  525   3.672   3.060   0.204
  376  LAT   Au  526   3.876   2.856   0.204
  377  LAT   Au  527   4.080   2.856   0.000
  378  LAT   Au  528   4.284   3.060   0.000
  379  LAT   Au  529   4.080   3.060   0.204
  380  LAT   Au  530   4.284   2.856   0.204
  381  LAT   Au  531   4.488   2.856   0.000
  382  LAT   Au  532   4.692   3.060   0.000
  383  LAT   Au  533   4.488   3.060   0.204
  384  LAT   Au  534   4.692   2.856   0.204
  385  LAT   Au  535   0.000   3.264   0.000
  386  LAT   Au  536   0.204   3.468   0.000
  387  LAT   Au  537   0.000   3.468   0.204
  388  LAT   Au  538   0.204   3.264   0.204
  389  LAT   Au  539   0.408   3.264   0.000
  390  LAT   Au  540   0.612   3.468   0.000
  391  LAT   Au  541   0.408   3.468   0.204
  392  LAT   Au  542   0.612   3.264   0.204
  393  LAT   Au  543   0.816   3.264   0.000
  394  LAT   Au  544   1.020   3.468   0.000
  395  LAT   Au  545   0.816   3.468   0.204
  396  LAT   Au  546   1.020   3.264   0.204
  397  LAT   Au  547   1.224   3.264   0.000
  398  LAT   Au  548   1.428   3.468   0.000
  399  LAT   Au  549   1.224   3.468   0.204
  400  LAT   Au  550   1.428   3.264   0.204
  401  LAT   Au  551   1.632   3.264   0.000
  402  LAT   Au  552   1.836   3.468   0.000
  403  LAT   Au  553   1.632   3.468   0.204
  404  LAT   Au  554   1.836   3.264   0.204
  405  LAT   Au  555   2.040   3.264   0.000
  406  LAT   Au  556   2.244   3.468   0.000
  407  LAT   Au  557   2.040   3.468   0.204
  408  LAT   Au  558   2.244   3.264   0.204
  409  LAT   Au  559   2.448   3.264   0.000
  410  LAT   Au  560   2.652   3.468   0.000
  411  LAT   Au  561   2.448   3.468   0.204
  412  LAT   Au  562   2.652   3.264   0.204
  413  LAT   Au  563   2.856   3.264   0.000
  414  LAT   Au  564   3.060   3.468   0.000
  415  LAT   Au  565   2.856   3.468   0.204
  416  LAT   Au  566   3.060   3.264   0.204
  417  LAT   Au  567   3.264   3.264   0.000
  418  LAT   Au  568   3.468   3.468   0.000
  419  LAT   Au  569   3.264   3.468   0.204
  420  LAT   Au  570   3.468   3.264   0.204
  421  LAT   Au  571   3.672   3.264   0.000
  422  LAT   Au  572   3.876   3.468   0.000
  423  LAT   Au  573   3.672   3.468   0.204
  424  LAT   Au  574   3.876   3.264   0.204
  425  LAT   Au  575   4.080   3.264   0.000
  426  LAT   Au  576   4.284   3.468   0.000
  427  LAT   Au  577   4.080   3.468   0.204
  428  LAT   Au  578   4.284   3.264   0.204
  429  LAT   Au  579   4.488   3.264   0.000
  430  LAT   Au  580   4.692   3.468   0.000
  431  LAT   Au  581   4.488   3.468   0.204
  432  LAT   Au  582   4.692   3.264   0.204
  433  LAT   Au  583   0.000   3.672   0.000
  434  LAT   Au  584   0.204   3.876   0.000
  435  LAT   Au  585   0.000   3.876   0.204
  436  LAT   Au  586   0.204   3.672   0.204
  437  LAT   Au  587   0.408   3.672   0.000
  438  LAT   Au  588   0.612   3.876   0.000
  439  LAT   Au  589   0.408   3.876   0.204
  440  LAT   Au  590   0.612   3.672   0.204
  441  LAT   Au  591   0.816   3.672   0.000
  442  LAT   Au  592   1.020   3.876   0.000
  443  LAT   Au  593   0.816   3.876   0.204
  444  LAT   Au  594   1.020   3.672   0.204
  445  LAT   Au  595   1.224   3.672   0.000
  446  LAT   Au  596   1.428   3.876   0.000
  447  LAT   Au  597   1.224   3.876   0.204
  448  LAT   Au  598   1.428   3.672   0.204
  449  LAT   Au  599   1.632   3.672   0.000
  450  LAT   Au  600   1.836   3.876   0.000
  451  LAT   Au  601   1.632   3.876   0.204
  452  LAT   Au  602   1.836   3.672   0.204
  453  LAT   Au  603   2.040   3.672   0.000
  454  LAT   Au  604   2.244   3.876   0.000
  455  LAT   Au  605   2.040   3.876   0.204
  456  LAT   Au  606   2.244   3.672   0.204
  457  LAT   Au  607   2.448   3.672   0.000
  458  LAT   Au  608   2.652   3.876   0.000
  459  LAT   Au  609   2.448   3.876   0.204
  460  LAT   Au  610   2.652   3.672   0.204
  461  LAT   Au  611   2.856   3.672   0.000
  462  LAT   Au  612   3.060   3.876   0.000
  463  LAT   Au  613   2.856   3.876   0.204
  464  LAT   Au  614   3.060   3.672   0.204
  465  LAT   Au  615   3.264   3.672   0.000
  466  LAT   Au  616   3.468   3.876   0.000
  467  LAT   Au  617   3.264   3.876   0.204
  468  LAT   Au  618   3.468   3.672   0.204
  469  LAT   Au  619   3.672   3.672   0.000
  470  LAT   Au  620   3.876   3.876   0.000
  471  LAT   Au  621   3.672   3.876   0.204
  472  LAT   Au  622   3.876   3.672   0.204
  473  LAT   Au  623   4.080   3.672   0.000
  474  LAT   Au  624   4.284   3.876   0.000
  475  LAT   Au  625   4.080   3.876   0.204
  476  LAT   Au  626   4.284   3.672   0.204
  477  LAT   Au  627   4.488   3.672   0.000
  478  LAT   Au  628   4.692   3.876   0.000
  479  LAT   Au  629   4.488   3.876   0.204
  480  LAT   Au  630   4.692   3.672   0.204
  481  LAT   Au  631   0.000   4.080   0.000
  482  LAT   Au  632   0.204   4.284   0.000
  483  LAT   Au  633   0.000   4.284   0.204
  484  LAT   Au  634   0.204   4.080   0.204
  485  LAT   Au  635   0.408   4.080   0.000
  486  LAT   Au  636   0.612   4.284   0.000
  487  LAT   Au  637   0.408   4.284   0.204
  488  LAT   Au  638   0.612   4.080   0.204
  489  LAT   Au  639   0.816   4.080   0.000
  490  LAT   Au  640   1.020   4.284   0.000
  491  LAT   Au  641   0.816   4.284   0.204
  492  LAT   Au  642   1.020   4.080   0.204
  493  LAT   Au  643   1.224   4.080   0.000
  494  LAT   Au  644   1.428   4.284   0.000
  495  LAT   Au  645   1.224   4.284   0.204
  496  LAT   Au  646   1.428   4.080   0.204
  497  LAT   Au  647   1.632   4.080   0.000
  498  LAT   Au  648   1.836   4.284   0.000
  499  LAT   Au  649   1.632   4.284   0.204
  500  LAT   Au  650   1.836   4.080   0.204
  501  LAT   Au  651   2.040   4.080   0.000
  502  LAT   Au  652   2.244   4.284   0.000
  503  LAT   Au  653   2.040   4.284   0.204
  504  LAT   Au  654   2.244   4.080   0.204
  505  LAT   Au  655   2.448   4.080   0.000
  506  LAT   Au  656   2.652   4.284   0.000
  507  LAT   Au  657   2.448   4.284   0.204
  508  LAT   Au  658   2.652   4.080   0.204
  509  LAT   Au  659   2.856   4.080   0.000
  510  LAT   Au  660   3.060   4.284   0.000
  511  LAT   Au  661   2.856   4.284   0.204
  512  LAT   Au  662   3.060   4.080   0.204
  513  LAT   Au  663   3.264   4.080   0.000
  514  LAT   Au  664   3.468   4.284   0.000
  515  LAT   Au  665   3.264   4.284   0.204
  516  LAT   Au  666   3.468   4.080   0.204
  517  LAT   Au  667   3.672   4.080   0.000
  518  LAT   Au  668   3.876   4.284   0.000
  519  LAT   Au  669   3.672   4.284   0.204
  520  LAT   Au  670   3.876   4.080   0.204
  521  LAT   Au  671   4.080   4.080   0.000
  522  LAT   Au  672   4.284   4.284   0.000
  523  LAT   Au  673   4.080   4.284   0.204
  524  LAT   Au  674   4.284   4.080   0.204
  525  LAT   Au  675   4.488   4.080   0.000
  526  LAT   Au  676   4.692   4.284   0.000
  527  LAT   Au  677   4.488   4.284   0.204
  528  LAT   Au  678   4.692   4.080   0.204
  529  LAT   Au  679   0.000   4.488   0.000
  530  LAT   Au  680   0.204   4.692   0.000
  531  LAT   Au  681   0.000   4.692   0.204
  532  LAT   Au  682   0.204   4.488   0.204
  533  LAT   Au  683   0.408   4.488   0.000
  534  LAT   Au  684   0.612   4.692   0.000
  535  LAT   Au  685   0.408   4.692   0.204
  536  LAT   Au  686   0.612   4.488   0.204
  537  LAT   Au  687   0.816   4.488   0.000
  538  LAT   Au  688   1.020   4.692   0.000
  539  LAT   Au  689   0.816   4.692   0.204
  540  LAT   Au  690   1.020   4.488   0.204
  541  LAT   Au  691   1.224   4.488   0.000
  542  LAT   Au  692   1.428   4.692   0.000
  543  LAT   Au  693   1.224   4.692   0.204
  544  LAT   Au  694   1.428   4.488   0.204
  545  LAT   Au  695   1.632   4.488   0.000
  546  LAT   Au  696   1.836   4.692   0.000
  547  LAT   Au  697   1.632   4.692   0.204
  548  LAT   Au  698   1.836   4.488   0.204
  549  LAT   Au  699   2.040   4.488   0.000
  550  LAT   Au  700   2.244   4.692   0.000
  551  LAT   Au  701   2.040   4.692   0.204
  552  LAT   Au  702   2.244   4.488   0.204
  553  LAT   Au  703   2.448   4.488   0.000
  554  LAT   Au  704   2.652   4.692   0.000
  555  LAT   Au  705   2.448   4.692   0.204
  556  LAT   Au  706   2.652   4.488   0.204
  557  LAT   Au  707   2.856   4.488   0.000
  558  LAT   Au  708   3.060   4.692   0.000
  559  LAT   Au  709   2.856   4.692   0.204
  560  LAT   Au  710   3.060   4.488   0.204
  561  LAT   Au  711   3.264   4.488   0.000
  562  LAT   Au  712   3.468   4.692   0.000
  563  LAT   Au  713   3.264   4.692   0.204
  564  LAT   Au  714   3.468   4.488   0.204
  565  LAT   Au  715   3.672   4.488   0.000
  566  LAT   Au  716   3.876   4.692   0.000
  567  LAT   Au  717   3.672   4.692   0.204
  568  LAT   Au  718   3.876   4.488   0.204
  569  LAT   Au  719   4.080   4.488   0.000
  570  LAT   Au  720   4.284   4.692   0.000
  571  LAT   Au  721   4.080   4.692   0.204
  572  LAT   Au  722   4.284   4.488   0.204
  573  LAT   Au  723   4.488   4.488   0.000
  574  LAT   Au  724   4.692   4.692   0.000
  575  LAT   Au  725   4.488   4.692   0.204
  576  LAT   Au  726   4.692   4.488   0.204
  577  LAT   Au  727   0.000   0.000   0.408
  578  LAT   Au  728   0.204   0.204   0.408
  579  LAT   Au  729   0.000   0.204   0.612
  580  LAT   Au  730   0.204   0.000   0.612
  581  LAT   Au  731   0.408   0.000   0.408
  582  LAT   Au  732   0.612   0.204   0.408
  583  LAT   Au  733   0.408   0.204   0.612
  584  LAT   Au  734   0.612   0.000   0.612
  585  LAT   Au  735   0.816   0.000   0.408
  586  LAT   Au  736   1.020   0.204   0.408
  587  LAT   Au  737   0.816   0.204   0.612
  588  LAT   Au  738   1.020   0.000   0.612
  589  LAT   Au  739   1.224   0.000   0.408
  590  LAT   Au  740   1.428   0.204   0.408
  591  LAT   Au  741   1.224   0.204   0.612
  592  LAT   Au  742   1.428   0.000   0.612
  593  LAT   Au  743   1.632   0.000   0.408
  594  LAT   Au  744   1.836   0.204   0.408
  595  LAT   Au  745   1.632   0.204   0.612
  596  LAT   Au  746   1.836   0.000   0.612
  597  LAT   Au  747   2.040   0.000   0.408
  598  LAT   Au  748   2.244   0.204   0.408
  599  LAT   Au  749   2.040   0.204   0.612
  600  LAT   Au  750   2.244   0.000   0.612
  601  LAT   Au  751   2.448   0.000   0.408
  602  LAT   Au  752   2.652   0.204   0.408
  603  LAT   Au  753   2.448   0.204   0.612
  604  LAT   Au  754   2.652   0.000   0.612
  605  LAT   Au  755   2.856   0.000   0.408
  606  LAT   Au  756   3.060   0.204   0.408
  607  LAT   Au  757   2.856   0.204   0.612
  608  LAT   Au  758   3.060   0.000   0.612
  609  LAT   Au  759   3.264   0.000   0.408
  610  LAT   Au  760   3.468   0.204   0.408
  611  LAT   Au  761   3.264   0.204   0.612
  612  LAT   Au  762   3.468   0.000   0.612
  613  LAT   Au  763   3.672   0.000   0.408
  614  LAT   Au  764   3.876   0.204   0.408
  615  LAT   Au  765   3.672   0.204   0.612
  616  LAT   Au  766   3.876   0.000   0.612
  617  LAT   Au  767   4.080   0.000   0.408
  618  LAT   Au  768   4.284   0.204   0.408
  619  LAT   Au  769   4.080   0.204   0.612
  620  LAT   Au  770   4.284   0.000   0.612
  621  LAT   Au  771   4.488   0.000   0.408
  622  LAT   Au  772   4.692   0.204   0.408
  623  LAT   Au  773   4.488   0.204   0.612
  624  LAT   Au  774   4.692   0.000   0.612
  625  LAT   Au  775   0.000   0.408   0.408
  626  LAT   Au  776   0.204   0.612   0.408
  627  LAT   Au  777   0.000   0.612   0.612
  628  LAT   Au  778   0.204   0.408   0.612
  629  LAT   Au  779   0.408   0.408   0.408
  630  LAT   Au  780   0.612   0.612   0.408
  631  LAT   Au  781   0.408   0.612   0.612
  632  LAT   Au  782   0.612   0.408   0.612
  633  LAT   Au  783   0.816   0.408   0.408
  634  LAT   Au  784   1.020   0.612   0.408
  635  LAT   Au  785   0.816   0.612   0.612
  636  LAT   Au  786   1.020   0.408   0.612
  637  LAT   Au  787   1.224   0.408   0.408
  638  LAT   Au  788   1.428   0.612   0.408
  639  LAT   Au  789   1.224   0.612   0.612
  640  LAT   Au  790   1.428   0.408   0.612
  641  LAT   Au  791   1.632   0.408   0.408
  642  LAT   Au  792   1.836   0.612   0.408
  643  LAT   Au  793   1.632   0.612   0.612
  644  LAT   Au  794   1.836   0.408   0.612
  645  LAT   Au  795   2.040   0.408   0.408
  646  LAT   Au  796   2.244   0.612   0.408
  647  LAT   Au  797   2.040   0.612   0.612
  648  LAT   Au  798   2.244   0.408   0.612
  649  LAT   Au  799   2.448   0.408   0.408
  650  LAT   Au  800   2.652   0.612   0.408
  651  LAT   Au  801   2.448   0.612   0.612
  652  LAT   Au  802   2.652   0.408   0.612
  653  LAT   Au  803   2.856   0.408   0.408
  654  LAT   Au  804   3.060   0.612   0.408
  655  LAT   Au  805   2.856   0.612   0.612
  656  LAT   Au  806   3.060   0.408   0.612
  657  LAT   Au  807   3.264   0.408   0.408
  658  LAT   Au  808   3.468   0.612   0.408
  659  LAT   Au  809   3.264   0.612   0.612
  660  LAT   Au  810   3.468   0.408   0.612
  661  LAT   Au  811   3.672   0.408   0.408
  662  LAT   Au  812   3.876   0.612   0.408
  663  LAT   Au  813   3.672   0.612   0.612
  664  LAT   Au  814   3.876   0.408   0.612
  665  LAT   Au  815   4.080   0.408   0.408
  666  LAT   Au  816   4.284   0.612   0.408
  667  LAT   Au  817   4.080   0.612   0.612
  668  LAT   Au  818   4.284   0.408   0.612
  669  LAT   Au  819   4.488   0.408   0.408
  670  LAT   Au  820   4.692   0.612   0.408
  671  LAT   Au  821   4.488   0.612   0.612
  672  LAT   Au  822   4.692   0.408   0.612
  673  LAT   Au  823   0.000   0.816   0.408
  674  LAT   Au  824   0.204   1.020   0.408
  675  LAT   Au  825   0.000   1.020   0.612
  676  LAT   Au  826   0.204   0.816   0.612
  677  LAT   Au  827   0.408   0.816   0.408
  678  LAT   Au  828   0.612   1.020   0.408
  679  LAT   Au  829   0.408   1.020   0.612
  680  LAT   Au  830   0.612   0.816   0.612
  681  LAT   Au  831   0.816   0.816   0.408
  682  LAT   Au  832   1.020   1.020   0.408
  683  LAT   Au  833   0.816   1.020   0.612
  684  LAT   Au  834   1.020   0.816   0.612
  685  LAT   Au  835   1.224   0.816   0.408
  686  LAT   Au  836   1.428   1.020   0.408
  687  LAT   Au  837   1.224   1.020   0.612
  688  LAT   Au  838   1.428   0.816   0.612
  689  LAT   Au  839   1.632   0.816   0.408
  690  LAT   Au  840   1.836   1.020   0.408
  691  LAT   Au  841   1.632   1.020   0.612
  692  LAT   Au  842   1.836   0.816   0.612
  693  LAT   Au  843   2.040   0.816   0.408
  694  LAT   Au  844   2.244   1.020   0.408
  695  LAT   Au  845   2.040   1.020   0.612
  696  LAT   Au  846   2.244   0.816   0.612
  697  LAT   Au  847   2.448   0.816   0.408
  698  LAT   Au  848   2.652   1.020   0.408
  699  LAT   Au  849   2.448   1.020   0.612
  700  LAT   Au  850   2.652   0.816   0.612
  701  LAT   Au  851   2.856   0.816   0.408
  702  LAT   Au  852   3.060   1.020   0.408
  703  LAT   Au  853   2.856   1.020   0.612
  704  LAT   Au  854   3.060   0.816   0.612
  705  LAT   Au  855   3.264   0.816   0.408
  706  LAT   Au  856   3.468   1.020   0.408
  707  LAT   Au  857   3.264   1.020   0.612
  708  LAT   Au  858   3.468   0.816   0.612
  709  LAT   Au  859   3.672   0.816   0.408
  710  LAT   Au  860   3.876   1.020   0.408
  711  LAT   Au  861   3.672   1.020   0.612
  712  LAT   Au  862   3.876   0.816   0.612
  713  LAT   Au  863   4.080   0.816   0.408
  714  LAT   Au  864   4.284   1.020   0.408
  715  LAT   Au  865   4.080   1.020   0.612
  716  LAT   Au  866   4.284   0.816   0.612
  717  LAT   Au  867   4.488   0.816   0.408
  718  LAT   Au  868   4.692   1.020   0.408
  719  LAT   Au  869   4.488   1.020   0.612
  720  LAT   Au  870   4.692   0.816   0.612
  721  LAT   Au  871   0.000   1.224   0.408
  722  LAT   Au  872   0.204   1.428   0.408
  723  LAT   Au  873   0.000   1.428   0.612
  724  LAT   Au  874   0.204   1.224   0.612
  725  LAT   Au  875   0.408   1.224   0.408
  726  LAT   Au  876   0.612   1.428   0.408
  727  LAT   Au  877   0.408   1.428   0.612
  728  LAT   Au  878   0.612   1.224   0.612
  729  LAT   Au  879   0.816   1.224   0.408
  730  LAT   Au  880   1.020   1.428   0.408
  731  LAT   Au  881   0.816   1.428   0.612
  732  LAT   Au  882   1.020   1.224   0.612
  733  LAT   Au  883   1.224   1.224   0.408
  734  LAT   Au  884   1.428   1.428   0.408
  735  LAT   Au  885   1.224   1.428   0.612
  736  LAT   Au  886   1.428   1.224   0.612
  737  LAT   Au  887   1.632   1.224   0.408
  738  LAT   Au  888   1.836   1.428   0.408
  739  LAT   Au  889   1.632   1.428   0.612
  740  LAT   Au  890   1.836   1.224   0.612
  741  LAT   Au  891   2.040   1.224   0.408
  742  LAT   Au  892   2.244   1.428   0.408
  743  LAT   Au  893   2.040   1.428   0.612
  744  LAT   Au  894   2.244   1.224   0.612
  745  LAT   Au  895   2.448   1.224   0.408
  746  LAT   Au  896   2.652   1.428   0.408
  747  LAT   Au  897   2.448   1.428   0.612
  748  LAT   Au  898   2.652   1.224   0.612
  749  LAT   Au  899   2.856   1.224   0.408
  750  LAT   Au  900   3.060   1.428   0.408
  751  LAT   Au  901   2.856   1.428   0.612
  752  LAT   Au  902   3.060   1.224   0.612
  753  LAT   Au  903   3.264   1.224   0.408
  754  LAT   Au  904   3.468   1.428   0.408
  755  LAT   Au  905   3.264   1.428   0.612
  756  LAT   Au  906   3.468   1.224   0.612
  757  LAT   Au  907   3.672   1.224   0.408
  758  LAT   Au  908   3.876   1.428   0.408
  759  LAT   Au  909   3.672   1.428   0.612
  760  LAT   Au  910   3.876   1.224   0.612
  761  LAT   Au  911   4.080   1.224   0.408
  762  LAT   Au  912   4.284   1.428   0.408
  763  LAT   Au  913   4.080   1.428   0.612
  764  LAT   Au  914   4.284   1.224   0.612
  765  LAT   Au  915   4.488   1.224   0.408
  766  LAT   Au  916   4.692   1.428   0.408
  767  LAT   Au  917   4.488   1.428   0.612
  768  LAT   Au  918   4.692   1.224   0.612
  769  LAT   Au  919   0.000   1.632   0.408
  770  LAT   Au  920   0.204   1.836   0.408
  771  LAT   Au  921   0.000   1.836   0.612
  772  LAT   Au  922   0.204   1.632   0.612
  773  LAT   Au  923   0.408   1.632   0.408
  774  LAT   Au  924   0.612   1.836   0.408
  775  LAT   Au  925   0.408   1.836   0.612
  776  LAT   Au  926   0.612   1.632   0.612
  777  LAT   Au  927   0.816   1.632   0.408
  778  LAT   Au  928   1.020   1.836   0.408
  779  LAT   Au  929   0.816   1.836   0.612
  780  LAT   Au  930   1.020   1.632   0.612
  781  LAT   Au  931   1.224   1.632   0.408
  782  LAT   Au  932   1.428   1.836   0.408
  783  LAT   Au  933   1.224   1.836   0.612
  784  LAT   Au  934   1.428   1.632   0.612
  785  LAT   Au  935   1.632   1.632   0.408
  786  LAT   Au  936   1.836   1.836   0.408
  787  LAT   Au  937   1.632   1.836   0.612
  788  LAT   Au  938   1.836   1.632   0.612
  789  LAT   Au  939   2.040   1.632   0.408
  790  LAT   Au  940   2.244   1.836   0.408
  791  LAT   Au  941   2.040   1.836   0.612
  792  LAT   Au  942   2.244   1.632   0.612
  793  LAT   Au  943   2.448   1.632   0.408
  794  LAT   Au  944   2.652   1.836   0.408
  795  LAT   Au  945   2.448   1.836   0.612
  796  LAT   Au  946   2.652   1.632   0.612
  797  LAT   Au  947   2.856   1.632   0.408
  798  LAT   Au  948   3.060   1.836   0.408
  799  LAT   Au  949   2.856   1.836   0.612
  800  LAT   Au  950   3.060   1.632   0.612
  801  LAT   Au  951   3.264   1.632   0.408
  802  LAT   Au  952   3.468   1.836   0.408
  803  LAT   Au  953   3.264   1.836   0.612
  804  LAT   Au  954   3.468   1.632   0.612
  805  LAT   Au  955   3.672   1.632   0.408
  806  LAT   Au  956   3.876   1.836   0.408
  807  LAT   Au  957   3.672   1.836   0.612
  808  LAT   Au  958   3.876   1.632   0.612
  809  LAT   Au  959   4.080   1.632   0.408
  810  LAT   Au  960   4.284   1.836   0.408
  811  LAT   Au  961   4.080   1.836   0.612
  812  LAT   Au  962   4.284   1.632   0.612
  813  LAT   Au  963   4.488   1.632   0.408
  814  LAT   Au  964   4.692   1.836   0.408
  815  LAT   Au  965   4.488   1.836   0.612
  816  LAT   Au  966   4.692   1.632   0.612
  817  LAT   Au  967   0.000   2.040   0.408
  818  LAT   Au  968   0.204   2.244   0.408
  819  LAT   Au  969   0.000   2.244   0.612
  820  LAT   Au  970   0.204   2.040   0.612
  821  LAT   Au  971   0.408   2.040   0.408
  822  LAT   Au  972   0.612   2.244   0.408
  823  LAT   Au  973   0.408   2.244   0.612
  824  LAT   Au  974   0.612   2.040   0.612
  825  LAT   Au  975   0.816   2.040   0.408
  826  LAT   Au  976   1.020   2.244   0.408
  827  LAT   Au  977   0.816   2.244   0.612
  828  LAT   Au  978   1.020   2.040   0.612
  829  LAT   Au  979   1.224   2.040   0.408
  830  LAT   Au  980   1.428   2.244   0.408
  831  LAT   Au  981   1.224   2.244   0.612
  832  LAT   Au  982   1.428   2.040   0.612
  833  LAT   Au  983   1.632   2.040   0.408
  834  LAT   Au  984   1.836   2.244   0.408
  835  LAT   Au  985   1.632   2.244   0.612
  836  LAT   Au  986   1.836   2.040   0.612
  837  LAT   Au  987   2.040   2.040   0.408
  838  LAT   Au  988   2.244   2.244   0.408
  839  LAT   Au  989   2.040   2.244   0.612
  840  LAT   Au  990   2.244   2.040   0.612
  841  LAT   Au  991   2.448   2.040   0.408
  842  LAT   Au  992   2.652   2.244   0.408
  843  LAT   Au  993   2.448   2.244   0.612
  844  LAT   Au  994   2.652   2.040   0.612
  845  LAT   Au  995   2.856   2.040   0.408
  846  LAT   Au  996   3.060   2.244   0.408
  847  LAT   Au  997   2.856   2.244   0.612
  848  LAT   Au  998   3.060   2.040   0.612
  849  LAT   Au  999   3.264   2.040   0.408
  850  LAT   Au 1000   3.468   2.244   0.408
  851  LAT   Au 1001   3.264   2.244   0.612
  852  LAT   Au 1002   3.468   2.040   0.612
  853  LAT   Au 1003   3.672   2.040   0.408
  854  LAT   Au 1004   3.876   2.244   0.408
  855  LAT   Au 1005   3.672   2.244   0.612
  856  LAT   Au 1006   3.876   2.040   0.612
  857  LAT   Au 1007   4.080   2.040   0.408
  858  LAT   Au 1008   4.284   2.244   0.408
  859  LAT   Au 1009   4.080   2.244   0.612
  860  LAT   Au 1010   4.284   2.040   0.612
  861  LAT   Au 1011   4.488   2.040   0.408
  862  LAT   Au 1012   4.692   2.244   0.408
  863  LAT   Au 1013   4.488   2.244   0.612
  864  LAT   Au 1014   4.692   2.040   0.612
  865  LAT   Au 1015   0.000   2.448   0.408
  866  LAT   Au 1016   0.204   2.652   0.408
  867  LAT   Au 1017   0.000   2.652   0.612
  868  LAT   Au 1018   0.204   2.448   0.612
  869  LAT   Au 1019   0.408   2.448   0.408
  870  LAT   Au 1020   0.612   2.652   0.408
  871  LAT   Au 1021   0.408   2.652   0.612
  872  LAT   Au 1022   0.612   2.448   0.612
  873  LAT   Au 1023   0.816   2.448   0.408
  874  LAT   Au 1024   1.020   2.652   0.408
  875  LAT   Au 1025   0.816   2.652   0.612
  876  LAT   Au 1026   1.020   2.448   0.612
  877  LAT   Au 1027   1.224   2.448   0.408
  878  LAT   Au 1028   1.428   2.652   0.408
  879  LAT   Au 1029   1.224   2.652   0.612
  880  LAT   Au 1030   1.428   2.448   0.612
  881  LAT   Au 1031   1.632   2.448   0.408
  882  LAT   Au 1032   1.836   2.652   0.408
  883  LAT   Au 1033   1.632   2.652   0.612
  884  LAT   Au 1034   1.836   2.448   0.612
  885  LAT   Au 1035   2.040   2.448   0.408
  886  LAT   Au 1036   2.244   2.652   0.408
  887  LAT   Au 1037   2.040   2.652   0.612
  888  LAT   Au 1038   2.244   2.448   0.612
  889  LAT   Au 1039   2.448   2.448   0.408
  890  LAT   Au 1040   2.652   2.652   0.408
  891  LAT   Au 1041   2.448   2.652   0.612
  892  LAT   Au 1042   2.652   2.448   0.612
  893  LAT   Au 1043   2.856   2.448   0.408
  894  LAT   Au 1044   3.060   2.652   0.408
  895  LAT   Au 1045   2.856   2.652   0.612
  896  LAT   Au 1046   3.060   2.448   0.612
  897  LAT   Au 1047   3.264   2.448   0.408
  898  LAT   Au 1048   3.468   2.652   0.408
  899  LAT   Au 1049   3.264   2.652   0.612
  900  LAT   Au 1050   3.468   2.448   0.612
  901  LAT   Au 1051   3.672   2.448   0.408
  902  LAT   Au 1052   3.876   2.652   0.408
  903  LAT   Au 1053   3.672   2.652   0.612
  904  LAT   Au 1054   3.876   2.448   0.612
  905  LAT   Au 1055   4.080   2.448   0.408
  906  LAT   Au 1056   4.284   2.652   0.408
  907  LAT   Au 1057   4.080   2.652   0.612
  908  LAT   Au 1058   4.284   2.448   0.612
  909  LAT   Au 1059   4.488   2.448   0.408
  910  LAT   Au 1060   4.692   2.652   0.408
  911  LAT   Au 1061   4.488   2.652   0.612
  912  LAT   Au 1062   4.692   2.448   0.612
  913  LAT   Au 1063   0.000   2.856   0.408
  914  LAT   Au 1064   0.204   3.060   0.408
  915  LAT   Au 1065   0.000   3.060   0.612
  916  LAT   Au 1066   0.204   2.856   0.612
  917  LAT   Au 1067   0.408   2.856   0.408
  918  LAT   Au 1068   0.612   3.060   0.408
  919  LAT   Au 1069   0.408   3.060   0.612
  920  LAT   Au 1070   0.612   2.856   0.612
  921  LAT   Au 1071   0.816   2.856   0.408
  922  LAT   Au 1072   1.020   3.060   0.408
  923  LAT   Au 1073   0.816   3.060   0.612
  924  LAT   Au 1074   1.020   2.856   0.612
  925  LAT   Au 1075   1.224   2.856   0.408
  926  LAT   Au 1076   1.428   3.060   0.408
  927  LAT   Au 1077   1.224   3.060   0.612
  928  LAT   Au 1078   1.428   2.856   0.612
  929  LAT   Au 1079   1.632   2.856   0.408
  930  LAT   Au 1080   1.836   3.060   0.408
  931  LAT   Au 1081   1.632   3.060   0.612
  932  LAT   Au 1082   1.836   2.856   0.612
  933  LAT   Au 1083   2.040   2.856   0.408
  934  LAT   Au 1084   2.244   3.060   0.408
  935  LAT   Au 1085   2.040   3.060   0.612
  936  LAT   Au 1086   2.244   2.856   0.612
  937  LAT   Au 1087   2.448   2.856   0.408
  938  LAT   Au 1088   2.652   3.060   0.408
  939  LAT   Au 1089   2.448   3.060   0.612
  940  LAT   Au 1090   2.652   2.856   0.612
  941  LAT   Au 1091   2.856   2.856   0.408
  942  LAT   Au 1092   3.060   3.060   0.408
  943  LAT   Au 1093   2.856   3.060   0.612
  944  LAT   Au 1094   3.060   2.856   0.612
  945  LAT   Au 1095   3.264   2.856   0.408
  946  LAT   Au 1096   3.468   3.060   0.408
  947  LAT   Au 1097   3.264   3.060   0.612
  948  LAT   Au 1098   3.468   2.856   0.612
  949  LAT   Au 1099   3.672   2.856   0.408
  950  LAT   Au 1100   3.876   3.060   0.408
  951  LAT   Au 1101   3.672   3.060   0.612
  952  LAT   Au 1102   3.876   2.856   0.612
  953  LAT   Au 1103   4.080   2.856   0.408
  954  LAT   Au 1104   4.284   3.060   0.408
  955  LAT   Au 1105   4.080   3.060   0.612
  956  LAT   Au 1106   4.284   2.856   0.612
  957  LAT   Au 1107   4.488   2.856   0.408
  958  LAT   Au 1108   4.692   3.060   0.408
  959  LAT   Au 1109   4.488   3.060   0.612
  960  LAT   Au 1110   4.692   2.856   0.612
  961  LAT   Au 1111   0.000   3.264   0.408
  962  LAT   Au 1112   0.204   3.468   0.408
  963  LAT   Au 1113   0.000   3.468   0.612
  964  LAT   Au 1114   0.204   3.264   0.612
  965  LAT   Au 1115   0.408   3.264   0.408
  966  LAT   Au 1116   0.612   3.468   0.408
  967  LAT   Au 1117   0.408   3.468   0.612
  968  LAT   Au 1118   0.612   3.264   0.612
  969  LAT   Au 1119   0.816   3.264   0.408
  970  LAT   Au 1120   1.020   3.468   0.408
  971  LAT   Au 1121   0.816   3.468   0.612
  972  LAT   Au 1122   1.020   3.264   0.612
  973  LAT   Au 1123   1.224   3.264   0.408
  974  LAT   Au 1124   1.428   3.468   0.408
  975  LAT   Au 1125   1.224   3.468   0.612
  976  LAT   Au 1126   1.428   3.264   0.612
  977  LAT   Au 1127   1.632   3.264   0.408
  978  LAT   Au 1128   1.836   3.468   0.408
  979  LAT   Au 1129   1.632   3.468   0.612
  980  LAT   Au 1130   1.836   3.264   0.612
  981  LAT   Au 1131   2.040   3.264   0.408
  982  LAT   Au 1132   2.244   3.468   0.408
  983  LAT   Au 1133   2.040   3.468   0.612
  984  LAT   Au 1134   2.244   3.264   0.612
  985  LAT   Au 1135   2.448   3.264   0.408
  986  LAT   Au 1136   2.652   3.468   0.408
  987  LAT   Au 1137   2.448   3.468   0.612
  988  LAT   Au 1138   2.652   3.264   0.612
  989  LAT   Au 1139   2.856   3.264   0.408
  990  LAT   Au 1140   3.060   3.468   0.408
  991  LAT   Au 1141   2.856   3.468   0.612
  992  LAT   Au 1142   3.060   3.264   0.612
  993  LAT   Au 1143   3.264   3.264   0.408
  994  LAT   Au 1144   3.468   3.468   0.408
  995  LAT   Au 1145   3.264   3.468   0.612
  996  LAT   Au 1146   3.468   3.264   0.612
  997  LAT   Au 1147   3.672   3.264   0.408
  998  LAT   Au 1148   3.876   3.468   0.408
  999  LAT   Au 1149   3.672   3.468   0.612
 1000  LAT   Au 1150   3.876   3.264   0.612
 1001  LAT   Au 1151   4.080   3.264   0.408
 1002  LAT   Au 1152   4.284   3.468   0.408
 1003  LAT   Au 1153   4.080   3.468   0.612
 1004  LAT   Au 1154   4.284   3.264   0.612
 1005  LAT   Au 1155   4.488   3.264   0.408
 1006  LAT   Au 1156   4.692   3.468   0.408
 1007  LAT   Au 1157   4.488   3.468   0.612
 1008  LAT   Au 1158   4.692   3.264   0.612
 1009  LAT   Au 1159   0.000   3.672   0.408
 1010  LAT   Au 1160   0.204   3.876   0.408
 1011  LAT   Au 1161   0.000   3.876   0.612
 1012  LAT   Au 1162   0.204   3.672   0.612
 1013  LAT   Au 1163   0.408   3.672   0.408
 1014  LAT   Au 1164   0.612   3.876   0.408
 1015  LAT   Au 1165   0.408   3.876   0.612
 1016  LAT   Au 1166   0.612   3.672   0.612
 1017  LAT   Au 1167   0.816   3.672   0.408
 1018  LAT   Au 1168   1.020   3.876   0.408
 1019  LAT   Au 1169   0.816   3.876   0.612
 1020  LAT   Au 1170   1.020   3.672   0.612
 1021  LAT   Au 1171   1.224   3.672   0.408
 1022  LAT   Au 1172   1.428   3.876   0.408
 1023  LAT   Au 1173   1.224   3.876   0.612
 1024  LAT   Au 1174   1.428   3.672   0.612
 1025  LAT   Au 1175   1.632   3.672   0.408
 1026  LAT   Au 1176   1.836   3.876   0.408
 1027  LAT   Au 1177   1.632   3.876   0.612
 1028  LAT   Au 1178   1.836   3.672   0.612
 1029  LAT   Au 1179   2.040   3.672   0.408
 1030  LAT   Au 1180   2.244   3.876   0.408
 1031  LAT   Au 1181   2.040   3.876   0.612
 1032  LAT   Au 1182   2.244   3.672   0.612
 1033  LAT   Au 1183   2.448   3.672   0.408
 1034  LAT   Au 1184   2.652   3.876   0.408
 1035  LAT   Au 1185   2.448   3.876   0.612
 1036  LAT   Au 1186   2.652   3.672   0.612
 1037  LAT   Au 1187   2.856   3.672   0.408
 1038  LAT   Au 1188   3.060   3.876   0.408
 1039  LAT   Au 1189   2.856   3.876   0.612
 1040  LAT   Au 1190   3.060   3.672   0.612
 1041  LAT   Au 1191   3.264   3.672   0.408
 1042  LAT   Au 1192   3.468   3.876   0.408
 1043  LAT   Au 1193   3.264   3.876   0.612
 1044  LAT   Au 1194   3.468   3.672   0.612
 1045  LAT   Au 1195   3.672   3.672   0.408
 1046  LAT   Au 1196   3.876   3.876   0.408
 1047  LAT   Au 1197   3.672   3.876   0.612
 1048  LAT   Au 1198   3.876   3.672   0.612
 1049  LAT   Au 1199   4.080   3.672   0.408
 1050  LAT   Au 1200   4.284   3.876   0.408
 1051  LAT   Au 1201   4.080   3.876   0.612
 1052  LAT   Au 1202   4.284   3.672   0.612
 1053  LAT   Au 1203   4.488   3.672   0.408
 1054  LAT   Au 1204   4.692   3.876   0.408
 1055  LAT   Au 1205   4.488   3.876   0.612
 1056  LAT   Au 1206   4.692   3.672   0.612
 1057  LAT   Au 1207   0.000   4.080   0.408
 1058  LAT   Au 1208   0.204   4.284   0.408
 1059  LAT   Au 1209   0.000   4.284   0.612
 1060  LAT   Au 1210   0.204   4.080   0.612
 1061  LAT   Au 1211   0.408   4.080   0.408
 1062  LAT   Au 1212   0.612   4.284   0.408
 1063  LAT   Au 1213   0.408   4.284   0.612
 1064  LAT   Au 1214   0.612   4.080   0.612
 1065  LAT   Au 1215   0.816   4.080   0.408
 1066  LAT   Au 1216   1.020   4.284   0.408
 1067  LAT   Au 1217   0.816   4.284   0.612
 1068  LAT   Au 1218   1.020   4.080   0.612
 1069  LAT   Au 1219   1.224   4.080   0.408
 1070  LAT   Au 1220   1.428   4.284   0.408
 1071  LAT   Au 1221   1.224   4.284   0.612
 1072  LAT   Au 1222   1.428   4.080   0.612
 1073  LAT   Au 1223   1.632   4.080   0.408
 1074  LAT   Au 1224   1.836   4.284   0.408
 1075  LAT   Au 1225   1.632   4.284   0.612
 1076  LAT   Au 1226   1.836   4.080   0.612
 1077  LAT   Au 1227   2.040   4.080   0.408
 1078  LAT   Au 1228   2.244   4.284   0.408
 1079  LAT   Au 1229   2.040   4.284   0.612
 1080  LAT   Au 1230   2.244   4.080   0.612
 1081  LAT   Au 1231   2.448   4.080   0.408
 1082  LAT   Au 1232   2.652   4.284   0.408
 1083  LAT   Au 1233   2.448   4.284   0.612
 1084  LAT   Au 1234   2.652   4.080   0.612
 1085  LAT   Au 1235   2.856   4.080   0.408
 1086  LAT   Au 1236   3.060   4.284   0.408
 1087  LAT   Au 1237   2.856   4.284   0.612
 1088  LAT   Au 1238   3.060   4.080   0.612
 1089  LAT   Au 1239   3.264   4.080   0.408
 1090  LAT   Au 1240   3.468   4.284   0.408
 1091  LAT   Au 1241   3.264   4.284   0.612
 1092  LAT   Au 1242   3.468   4.080   0.612
 1093  LAT   Au 1243   3.672   4.080   0.408
 1094  LAT   Au 1244   3.876   4.284   0.408
 1095  LAT   Au 1245   3.672   4.284   0.612
 1096  LAT   Au 1246   3.876   4.080   0.612
 1097  LAT   Au 1247   4.080   4.080   0.408
 1098  LAT   Au 1248   4.284   4.284   0.408
 1099  LAT   Au 1249   4.080   4.284   0.612
 1100  LAT   Au 1250   4.284   4.080   0.612
 1101  LAT   Au 1251   4.488   4.080   0.408
 1102  LAT   Au 1252   4.692   4.284   0.408
 1103  LAT   Au 1253   4.488   4.284   0.612
 1104  LAT   Au 1254   4.692   4.080   0.612
 1105  LAT   Au 1255   0.000   4.488   0.408
 1106  LAT   Au 1256   0.204   4.692   0.408
 1107  LAT   Au 1257   0.000   4.692   0.612
 1108  LAT   Au 1258   0.204   4.488   0.612
 1109  LAT   Au 1259   0.408   4.488   0.408
 1110  LAT   Au 1260   0.612   4.692   0.408
 1111  LAT   Au 1261   0.408   4.692   0.612
 1112  LAT   Au 1262   0.612   4.488   0.612
 1113  LAT   Au 1263   0.816   4.488   0.408
 1114  LAT   Au 1264   1.020   4.692   0.408
 1115  LAT   Au 1265   0.816   4.692   0.612
 1116  LAT   Au 1266   1.020   4.488   0.612
 1117  LAT   Au 1267   1.224   4.488   0.408
 1118  LAT   Au 1268   1.428   4.692   0.408
 1119  LAT   Au 1269   1.224   4.692   0.612
 1120  LAT   Au 1270   1.428   4.488   0.612
 1121  LAT   Au 1271   1.632   4.488   0.408
 1122  LAT   Au 1272   1.836   4.692   0.408
 1123  LAT   Au 1273   1.632   4.692   0.612
 1124  LAT   Au 1274   1.836   4.488   0.612
 1125  LAT   Au 1275   2.040   4.488   0.408
 1126  LAT   Au 1276   2.244   4.692   0.408
 1127  LAT   Au 1277   2.040   4.692   0.612
 1128  LAT   Au 1278   2.244   4.488   0.612
 1129  LAT   Au 1279   2.448   4.488   0.408
 1130  LAT   Au 1280   2.652   4.692   0.408
 1131  LAT   Au 1281   2.448   4.692   0.612
 1132  LAT   Au 1282   2.652   4.488   0.612
 1133  LAT   Au 1283   2.856   4.488   0.408
 1134  LAT   Au 1284   3.060   4.692   0.408
 1135  LAT   Au 1285   2.856   4.692   0.612
 1136  LAT   Au 1286   3.060   4.488   0.612
 1137  LAT   Au 1287   3.264   4.488   0.408
 1138  LAT   Au 1288   3.468   4.692   0.408
 1139  LAT   Au 1289   3.264   4.692   0.612
 1140  LAT   Au 1290   3.468   4.488   0.612
 1141  LAT   Au 1291   3.672   4.488   0.408
 1142  LAT   Au 1292   3.876   4.692   0.408
 1143  LAT   Au 1293   3.672   4.692   0.612
 1144  LAT   Au 1294   3.876   4.488   0.612
 1145  LAT   Au 1295   4.080   4.488   0.408
 1146  LAT   Au 1296   4.284   4.692   0.408
 1147  LAT   Au 1297   4.080   4.692   0.612
 1148  LAT   Au 1298   4.284   4.488   0.612
 1149  LAT   Au 1299   4.488   4.488   0.408
 1150  LAT   Au 1300   4.692   4.692   0.408
 1151  LAT   Au 1301   4.488   4.692   0.612
 1152  LAT   Au 1302   4.692   4.488   0.612
  10.00000  10.00000  10.00000
