[ moleculetype ]
polyGraft            3

[ atoms ]
1 CM2 1 PE C1 1 0.000 12.011
2 CM2 1 PE C2 1 0.000 12.011
3 CM2 1 PE C3 1 0.000 12.011
4 CM2 1 PE C4 1 0.000 12.011
5 CM2 1 PE C5 1 0.000 12.011
6 CM2 1 PE C6 1 0.000 12.011
7 CM2 1 PE C1 1 0.000 12.011
8 CM2 1 PE C2 1 0.000 12.011
9 CM2 1 PE C3 1 0.000 12.011
10 CM2 1 PE C4 1 0.000 12.011
11 CM2 1 PE C5 1 0.000 12.011
12 CM2 1 PE C6 1 0.000 12.011
13 CM2 1 PE C1 1 0.000 12.011
14 CM2 1 PE C2 1 0.000 12.011
15 CM2 1 PE C3 1 0.000 12.011
16 CM2 1 PE C4 1 0.000 12.011
17 CM2 1 PE C5 1 0.000 12.011
18 CM2 1 PE C6 1 0.000 12.011
19 CM2 1 PE C1 1 0.000 12.011
20 CM2 1 PE C2 1 0.000 12.011
21 CM2 1 PE C3 1 0.000 12.011
22 CM2 1 PE C4 1 0.000 12.011
23 CM2 1 PE C5 1 0.000 12.011
24 CM2 1 PE C6 1 0.000 12.011
25 CM2 1 PE C1 1 0.000 12.011
26 CM2 1 PE C2 1 0.000 12.011
27 CM2 1 PE C3 1 0.000 12.011
28 CM2 1 PE C4 1 0.000 12.011
29 CM2 1 PE C5 1 0.000 12.011
30 CM2 1 PE C6 1 0.000 12.011
31 CM2 1 PE C1 1 0.000 12.011
32 CM2 1 PE C2 1 0.000 12.011
33 CM2 1 PE C3 1 0.000 12.011
34 CM2 1 PE C4 1 0.000 12.011
35 CM2 1 PE C5 1 0.000 12.011
36 CM2 1 PE C6 1 0.000 12.011
37 CM2 1 PE C1 1 0.000 12.011
38 CM2 1 PE C2 1 0.000 12.011
39 CM2 1 PE C3 1 0.000 12.011
40 CM2 1 PE C4 1 0.000 12.011
41 CM2 1 PE C5 1 0.000 12.011
42 CM2 1 PE C6 1 0.000 12.011
43 CM2 1 PE C1 1 0.000 12.011
44 CM2 1 PE C2 1 0.000 12.011
45 CM2 1 PE C3 1 0.000 12.011
46 CM2 1 PE C4 1 0.000 12.011
47 CM2 1 PE C5 1 0.000 12.011
48 CM2 1 PE C6 1 0.000 12.011
49 CM2 1 PE C1 1 0.000 12.011
50 CM2 1 PE C2 1 0.000 12.011
51 CM2 1 PE C3 1 0.000 12.011
52 CM2 1 PE C4 1 0.000 12.011
53 CM2 1 PE C5 1 0.000 12.011
54 CM2 1 PE C6 1 0.000 12.011
55 CM2 1 PE C1 1 0.000 12.011
56 CM2 1 PE C2 1 0.000 12.011
57 CM2 1 PE C3 1 0.000 12.011
58 CM2 1 PE C4 1 0.000 12.011
59 CM2 1 PE C5 1 0.000 12.011
60 CM2 1 PE C6 1 0.000 12.011
61 CM2 1 PE C1 1 0.000 12.011
62 CM2 1 PE C2 1 0.000 12.011
63 CM2 1 PE C3 1 0.000 12.011
64 CM2 1 PE C4 1 0.000 12.011
65 CM2 1 PE C5 1 0.000 12.011
66 CM2 1 PE C6 1 0.000 12.011
67 CM2 1 PE C1 1 0.000 12.011
68 CM2 1 PE C2 1 0.000 12.011
69 CM2 1 PE C3 1 0.000 12.011
70 CM2 1 PE C4 1 0.000 12.011
71 CM2 1 PE C5 1 0.000 12.011
72 CM2 1 PE C6 1 0.000 12.011
73 CM2 1 PE C1 1 0.000 12.011
74 CM2 1 PE C2 1 0.000 12.011
75 CM2 1 PE C3 1 0.000 12.011
76 CM2 1 PE C4 1 0.000 12.011
77 CM2 1 PE C5 1 0.000 12.011
78 CM2 1 PE C6 1 0.000 12.011
79 CM2 1 PE C1 1 0.000 12.011
80 CM2 1 PE C2 1 0.000 12.011
81 CM2 1 PE C3 1 0.000 12.011
82 CM2 1 PE C4 1 0.000 12.011
83 CM2 1 PE C5 1 0.000 12.011
84 CM2 1 PE C6 1 0.000 12.011
85 CM2 1 PE C1 1 0.000 12.011
86 CM2 1 PE C2 1 0.000 12.011
87 CM2 1 PE C3 1 0.000 12.011
88 CM2 1 PE C4 1 0.000 12.011
89 CM2 1 PE C5 1 0.000 12.011
90 CM2 1 PE C6 1 0.000 12.011
91 CM2 1 PE C1 1 0.000 12.011
92 CM2 1 PE C2 1 0.000 12.011
93 CM2 1 PE C3 1 0.000 12.011
94 CM2 1 PE C4 1 0.000 12.011
95 CM2 1 PE C5 1 0.000 12.011
96 CM2 1 PE C6 1 0.000 12.011
97 CM2 1 PE C1 1 0.000 12.011
98 CM2 1 PE C2 1 0.000 12.011
99 CM2 1 PE C3 1 0.000 12.011
100 CM2 1 PE C4 1 0.000 12.011
101 CM2 1 PE C5 1 0.000 12.011
102 CM2 1 PE C6 1 0.000 12.011
103 CM2 1 PE C1 1 0.000 12.011
104 CM2 1 PE C2 1 0.000 12.011
105 CM2 1 PE C3 1 0.000 12.011
106 CM2 1 PE C4 1 0.000 12.011
107 CM2 1 PE C5 1 0.000 12.011
108 CM2 1 PE C6 1 0.000 12.011
109 CM2 1 PE C1 1 0.000 12.011
110 CM2 1 PE C2 1 0.000 12.011
111 CM2 1 PE C3 1 0.000 12.011
112 CM2 1 PE C4 1 0.000 12.011
113 CM2 1 PE C5 1 0.000 12.011
114 CM2 1 PE C6 1 0.000 12.011
115 CM2 1 PE C1 1 0.000 12.011
116 CM2 1 PE C2 1 0.000 12.011
117 CM2 1 PE C3 1 0.000 12.011
118 CM2 1 PE C4 1 0.000 12.011
119 CM2 1 PE C5 1 0.000 12.011
120 CM2 1 PE C6 1 0.000 12.011
121 CM2 1 PE C1 1 0.000 12.011
122 CM2 1 PE C2 1 0.000 12.011
123 CM2 1 PE C3 1 0.000 12.011
124 CM2 1 PE C4 1 0.000 12.011
125 CM2 1 PE C5 1 0.000 12.011
126 CM2 1 PE C6 1 0.000 12.011
127 CM2 1 PE C1 1 0.000 12.011
128 CM2 1 PE C2 1 0.000 12.011
129 CM2 1 PE C3 1 0.000 12.011
130 CM2 1 PE C4 1 0.000 12.011
131 CM2 1 PE C5 1 0.000 12.011
132 CM2 1 PE C6 1 0.000 12.011
133 CM2 1 PE C1 1 0.000 12.011
134 CM2 1 PE C2 1 0.000 12.011
135 CM2 1 PE C3 1 0.000 12.011
136 CM2 1 PE C4 1 0.000 12.011
137 CM2 1 PE C5 1 0.000 12.011
138 CM2 1 PE C6 1 0.000 12.011
139 CM2 1 PE C1 1 0.000 12.011
140 CM2 1 PE C2 1 0.000 12.011
141 CM2 1 PE C3 1 0.000 12.011
142 CM2 1 PE C4 1 0.000 12.011
143 CM2 1 PE C5 1 0.000 12.011
144 CM2 1 PE C6 1 0.000 12.011
145 CM2 1 PE C1 1 0.000 12.011
146 CM2 1 PE C2 1 0.000 12.011
147 CM2 1 PE C3 1 0.000 12.011
148 CM2 1 PE C4 1 0.000 12.011
149 CM2 1 PE C5 1 0.000 12.011
150 CM2 1 PE C6 1 0.000 12.011
151 CM2 1 PE C1 1 0.000 12.011
152 CM2 1 PE C2 1 0.000 12.011
153 CM2 1 PE C3 1 0.000 12.011
154 CM2 1 PE C4 1 0.000 12.011
155 CM2 1 PE C5 1 0.000 12.011
156 CM2 1 PE C6 1 0.000 12.011
157 CM2 1 PE C1 1 0.000 12.011
158 CM2 1 PE C2 1 0.000 12.011
159 CM2 1 PE C3 1 0.000 12.011
160 CM2 1 PE C4 1 0.000 12.011
161 CM2 1 PE C5 1 0.000 12.011
162 CM2 1 PE C6 1 0.000 12.011
163 CM2 1 PE C1 1 0.000 12.011
164 CM2 1 PE C2 1 0.000 12.011
165 CM2 1 PE C3 1 0.000 12.011
166 CM2 1 PE C4 1 0.000 12.011
167 CM2 1 PE C5 1 0.000 12.011
168 CM2 1 PE C6 1 0.000 12.011
169 CM2 1 PE C1 1 0.000 12.011
170 CM2 1 PE C2 1 0.000 12.011
171 CM2 1 PE C3 1 0.000 12.011
172 CM2 1 PE C4 1 0.000 12.011
173 CM2 1 PE C5 1 0.000 12.011
174 CM2 1 PE C6 1 0.000 12.011
175 CM2 1 PE C1 1 0.000 12.011
176 CM2 1 PE C2 1 0.000 12.011
177 CM2 1 PE C3 1 0.000 12.011
178 CM2 1 PE C4 1 0.000 12.011
179 CM2 1 PE C5 1 0.000 12.011
180 CM2 1 PE C6 1 0.000 12.011
181 CM2 1 PE C1 1 0.000 12.011
182 CM2 1 PE C2 1 0.000 12.011
183 CM2 1 PE C3 1 0.000 12.011
184 CM2 1 PE C4 1 0.000 12.011
185 CM2 1 PE C5 1 0.000 12.011
186 CM2 1 PE C6 1 0.000 12.011
187 CM2 1 PE C1 1 0.000 12.011
188 CM2 1 PE C2 1 0.000 12.011
189 CM2 1 PE C3 1 0.000 12.011
190 CM2 1 PE C4 1 0.000 12.011
191 CM2 1 PE C5 1 0.000 12.011
192 CM2 1 PE C6 1 0.000 12.011
193 CM2 1 PE C1 1 0.000 12.011
194 CM2 1 PE C2 1 0.000 12.011
195 CM2 1 PE C3 1 0.000 12.011
196 CM2 1 PE C4 1 0.000 12.011
197 CM2 1 PE C5 1 0.000 12.011
198 CM2 1 PE C6 1 0.000 12.011
199 CM2 1 PE C1 1 0.000 12.011
200 CM2 1 PE C2 1 0.000 12.011
201 CM2 1 PE C3 1 0.000 12.011
202 CM2 1 PE C4 1 0.000 12.011
203 CM2 1 PE C5 1 0.000 12.011
204 CM2 1 PE C6 1 0.000 12.011
205 CM2 1 PE C1 1 0.000 12.011
206 CM2 1 PE C2 1 0.000 12.011
207 CM2 1 PE C3 1 0.000 12.011
208 CM2 1 PE C4 1 0.000 12.011
209 CM2 1 PE C5 1 0.000 12.011
210 CM2 1 PE C6 1 0.000 12.011
211 CM2 1 PE C1 1 0.000 12.011
212 CM2 1 PE C2 1 0.000 12.011
213 CM2 1 PE C3 1 0.000 12.011
214 CM2 1 PE C4 1 0.000 12.011
215 CM2 1 PE C5 1 0.000 12.011
216 CM2 1 PE C6 1 0.000 12.011
217 CM2 1 PE C1 1 0.000 12.011
218 CM2 1 PE C2 1 0.000 12.011
219 CM2 1 PE C3 1 0.000 12.011
220 CM2 1 PE C4 1 0.000 12.011
221 CM2 1 PE C5 1 0.000 12.011
222 CM2 1 PE C6 1 0.000 12.011
223 CM2 1 PE C1 1 0.000 12.011
224 CM2 1 PE C2 1 0.000 12.011
225 CM2 1 PE C3 1 0.000 12.011
226 CM2 1 PE C4 1 0.000 12.011
227 CM2 1 PE C5 1 0.000 12.011
228 CM2 1 PE C6 1 0.000 12.011
229 CM2 1 PE C1 1 0.000 12.011
230 CM2 1 PE C2 1 0.000 12.011
231 CM2 1 PE C3 1 0.000 12.011
232 CM2 1 PE C4 1 0.000 12.011
233 CM2 1 PE C5 1 0.000 12.011
234 CM2 1 PE C6 1 0.000 12.011
235 CM2 1 PE C1 1 0.000 12.011
236 CM2 1 PE C2 1 0.000 12.011
237 CM2 1 PE C3 1 0.000 12.011
238 CM2 1 PE C4 1 0.000 12.011
239 CM2 1 PE C5 1 0.000 12.011
240 CM2 1 PE C6 1 0.000 12.011
241 CM2 1 PE C1 1 0.000 12.011
242 CM2 1 PE C2 1 0.000 12.011
243 CM2 1 PE C3 1 0.000 12.011
244 CM2 1 PE C4 1 0.000 12.011
245 CM2 1 PE C5 1 0.000 12.011
246 CM2 1 PE C6 1 0.000 12.011
247 CM2 1 PE C1 1 0.000 12.011
248 CM2 1 PE C2 1 0.000 12.011
249 CM2 1 PE C3 1 0.000 12.011
250 CM2 1 PE C4 1 0.000 12.011
251 CM2 1 PE C5 1 0.000 12.011
252 CM2 1 PE C6 1 0.000 12.011
253 CM2 1 PE C1 1 0.000 12.011
254 CM2 1 PE C2 1 0.000 12.011
255 CM2 1 PE C3 1 0.000 12.011
256 CM2 1 PE C4 1 0.000 12.011
257 CM2 1 PE C5 1 0.000 12.011
258 CM2 1 PE C6 1 0.000 12.011
259 CM2 1 PE C1 1 0.000 12.011
260 CM2 1 PE C2 1 0.000 12.011
261 CM2 1 PE C3 1 0.000 12.011
262 CM2 1 PE C4 1 0.000 12.011
263 CM2 1 PE C5 1 0.000 12.011
264 CM2 1 PE C6 1 0.000 12.011
265 CM2 1 PE C1 1 0.000 12.011
266 CM2 1 PE C2 1 0.000 12.011
267 CM2 1 PE C3 1 0.000 12.011
268 CM2 1 PE C4 1 0.000 12.011
269 CM2 1 PE C5 1 0.000 12.011
270 CM2 1 PE C6 1 0.000 12.011
271 CM2 1 PE C1 1 0.000 12.011
272 CM2 1 PE C2 1 0.000 12.011
273 CM2 1 PE C3 1 0.000 12.011
274 CM2 1 PE C4 1 0.000 12.011
275 CM2 1 PE C5 1 0.000 12.011
276 CM2 1 PE C6 1 0.000 12.011
277 CM2 1 PE C1 1 0.000 12.011
278 CM2 1 PE C2 1 0.000 12.011
279 CM2 1 PE C3 1 0.000 12.011
280 CM2 1 PE C4 1 0.000 12.011
281 CM2 1 PE C5 1 0.000 12.011
282 CM2 1 PE C6 1 0.000 12.011
283 CM2 1 PE C1 1 0.000 12.011
284 CM2 1 PE C2 1 0.000 12.011
285 CM2 1 PE C3 1 0.000 12.011
286 CM2 1 PE C4 1 0.000 12.011
287 CM2 1 PE C5 1 0.000 12.011
288 CM2 1 PE C6 1 0.000 12.011
289 CM2 1 PE C1 1 0.000 12.011
290 CM2 1 PE C2 1 0.000 12.011
291 CM2 1 PE C3 1 0.000 12.011
292 CM2 1 PE C4 1 0.000 12.011
293 CM2 1 PE C5 1 0.000 12.011
294 CM2 1 PE C6 1 0.000 12.011
295 CM2 1 PE C1 1 0.000 12.011
296 CM2 1 PE C2 1 0.000 12.011
297 CM2 1 PE C3 1 0.000 12.011
298 CM2 1 PE C4 1 0.000 12.011
299 CM2 1 PE C5 1 0.000 12.011
300 CM2 1 PE C6 1 0.000 12.011
301 CM2 1 PE C1 1 0.000 12.011
302 CM2 1 PE C2 1 0.000 12.011
303 CM2 1 PE C3 1 0.000 12.011
304 CM2 1 PE C4 1 0.000 12.011
305 CM2 1 PE C5 1 0.000 12.011
306 CM2 1 PE C6 1 0.000 12.011
307 CM2 1 PE C1 1 0.000 12.011
308 CM2 1 PE C2 1 0.000 12.011
309 CM2 1 PE C3 1 0.000 12.011
310 CM2 1 PE C4 1 0.000 12.011
311 CM2 1 PE C5 1 0.000 12.011
312 CM2 1 PE C6 1 0.000 12.011
313 CM2 1 PE C1 1 0.000 12.011
314 CM2 1 PE C2 1 0.000 12.011
315 CM2 1 PE C3 1 0.000 12.011
316 CM2 1 PE C4 1 0.000 12.011
317 CM2 1 PE C5 1 0.000 12.011
318 CM2 1 PE C6 1 0.000 12.011
319 CM2 1 PE C1 1 0.000 12.011
320 CM2 1 PE C2 1 0.000 12.011
321 CM2 1 PE C3 1 0.000 12.011
322 CM2 1 PE C4 1 0.000 12.011
323 CM2 1 PE C5 1 0.000 12.011
324 CM2 1 PE C6 1 0.000 12.011
325 CM2 1 PE C1 1 0.000 12.011
326 CM2 1 PE C2 1 0.000 12.011
327 CM2 1 PE C3 1 0.000 12.011
328 CM2 1 PE C4 1 0.000 12.011
329 CM2 1 PE C5 1 0.000 12.011
330 CM2 1 PE C6 1 0.000 12.011
331 CM2 1 PE C1 1 0.000 12.011
332 CM2 1 PE C2 1 0.000 12.011
333 CM2 1 PE C3 1 0.000 12.011
334 CM2 1 PE C4 1 0.000 12.011
335 CM2 1 PE C5 1 0.000 12.011
336 CM2 1 PE C6 1 0.000 12.011
337 CM2 1 PE C1 1 0.000 12.011
338 CM2 1 PE C2 1 0.000 12.011
339 CM2 1 PE C3 1 0.000 12.011
340 CM2 1 PE C4 1 0.000 12.011
341 CM2 1 PE C5 1 0.000 12.011
342 CM2 1 PE C6 1 0.000 12.011
343 CM2 1 PE C1 1 0.000 12.011
344 CM2 1 PE C2 1 0.000 12.011
345 CM2 1 PE C3 1 0.000 12.011
346 CM2 1 PE C4 1 0.000 12.011
347 CM2 1 PE C5 1 0.000 12.011
348 CM2 1 PE C6 1 0.000 12.011
349 CM2 1 PE C1 1 0.000 12.011
350 CM2 1 PE C2 1 0.000 12.011
351 CM2 1 PE C3 1 0.000 12.011
352 CM2 1 PE C4 1 0.000 12.011
353 CM2 1 PE C5 1 0.000 12.011
354 CM2 1 PE C6 1 0.000 12.011
355 CM2 1 PE C1 1 0.000 12.011
356 CM2 1 PE C2 1 0.000 12.011
357 CM2 1 PE C3 1 0.000 12.011
358 CM2 1 PE C4 1 0.000 12.011
359 CM2 1 PE C5 1 0.000 12.011
360 CM2 1 PE C6 1 0.000 12.011
361 CM2 1 PE C1 1 0.000 12.011
362 CM2 1 PE C2 1 0.000 12.011
363 CM2 1 PE C3 1 0.000 12.011
364 CM2 1 PE C4 1 0.000 12.011
365 CM2 1 PE C5 1 0.000 12.011
366 CM2 1 PE C6 1 0.000 12.011
367 CM2 1 PE C1 1 0.000 12.011
368 CM2 1 PE C2 1 0.000 12.011
369 CM2 1 PE C3 1 0.000 12.011
370 CM2 1 PE C4 1 0.000 12.011
371 CM2 1 PE C5 1 0.000 12.011
372 CM2 1 PE C6 1 0.000 12.011
373 CM2 1 PE C1 1 0.000 12.011
374 CM2 1 PE C2 1 0.000 12.011
375 CM2 1 PE C3 1 0.000 12.011
376 CM2 1 PE C4 1 0.000 12.011
377 CM2 1 PE C5 1 0.000 12.011
378 CM2 1 PE C6 1 0.000 12.011
379 CM2 1 PE C1 1 0.000 12.011
380 CM2 1 PE C2 1 0.000 12.011
381 CM2 1 PE C3 1 0.000 12.011
382 CM2 1 PE C4 1 0.000 12.011
383 CM2 1 PE C5 1 0.000 12.011
384 CM2 1 PE C6 1 0.000 12.011
385 CM2 1 PE C1 1 0.000 12.011
386 CM2 1 PE C2 1 0.000 12.011
387 CM2 1 PE C3 1 0.000 12.011
388 CM2 1 PE C4 1 0.000 12.011
389 CM2 1 PE C5 1 0.000 12.011
390 CM2 1 PE C6 1 0.000 12.011
391 CM2 1 PE C1 1 0.000 12.011
392 CM2 1 PE C2 1 0.000 12.011
393 CM2 1 PE C3 1 0.000 12.011
394 CM2 1 PE C4 1 0.000 12.011
395 CM2 1 PE C5 1 0.000 12.011
396 CM2 1 PE C6 1 0.000 12.011
397 CM2 1 PE C1 1 0.000 12.011
398 CM2 1 PE C2 1 0.000 12.011
399 CM2 1 PE C3 1 0.000 12.011
400 CM2 1 PE C4 1 0.000 12.011
401 CM2 1 PE C5 1 0.000 12.011
402 CM2 1 PE C6 1 0.000 12.011
403 CM2 1 PE C1 1 0.000 12.011
404 CM2 1 PE C2 1 0.000 12.011
405 CM2 1 PE C3 1 0.000 12.011
406 CM2 1 PE C4 1 0.000 12.011
407 CM2 1 PE C5 1 0.000 12.011
408 CM2 1 PE C6 1 0.000 12.011
409 CM2 1 PE C1 1 0.000 12.011
410 CM2 1 PE C2 1 0.000 12.011
411 CM2 1 PE C3 1 0.000 12.011
412 CM2 1 PE C4 1 0.000 12.011
413 CM2 1 PE C5 1 0.000 12.011
414 CM2 1 PE C6 1 0.000 12.011
415 CM2 1 PE C1 1 0.000 12.011
416 CM2 1 PE C2 1 0.000 12.011
417 CM2 1 PE C3 1 0.000 12.011
418 CM2 1 PE C4 1 0.000 12.011
419 CM2 1 PE C5 1 0.000 12.011
420 CM2 1 PE C6 1 0.000 12.011
421 CM2 1 PE C1 1 0.000 12.011
422 CM2 1 PE C2 1 0.000 12.011
423 CM2 1 PE C3 1 0.000 12.011
424 CM2 1 PE C4 1 0.000 12.011
425 CM2 1 PE C5 1 0.000 12.011
426 CM2 1 PE C6 1 0.000 12.011
427 CM2 1 PE C1 1 0.000 12.011
428 CM2 1 PE C2 1 0.000 12.011
429 CM2 1 PE C3 1 0.000 12.011
430 CM2 1 PE C4 1 0.000 12.011
431 CM2 1 PE C5 1 0.000 12.011
432 CM2 1 PE C6 1 0.000 12.011
433 CM2 1 PE C1 1 0.000 12.011
434 CM2 1 PE C2 1 0.000 12.011
435 CM2 1 PE C3 1 0.000 12.011
436 CM2 1 PE C4 1 0.000 12.011
437 CM2 1 PE C5 1 0.000 12.011
438 CM2 1 PE C6 1 0.000 12.011
439 CM2 1 PE C1 1 0.000 12.011
440 CM2 1 PE C2 1 0.000 12.011
441 CM2 1 PE C3 1 0.000 12.011
442 CM2 1 PE C4 1 0.000 12.011
443 CM2 1 PE C5 1 0.000 12.011
444 CM2 1 PE C6 1 0.000 12.011
445 CM2 1 PE C1 1 0.000 12.011
446 CM2 1 PE C2 1 0.000 12.011
447 CM2 1 PE C3 1 0.000 12.011
448 CM2 1 PE C4 1 0.000 12.011
449 CM2 1 PE C5 1 0.000 12.011
450 CM2 1 PE C6 1 0.000 12.011
451 CM2 1 PE C1 1 0.000 12.011
452 CM2 1 PE C2 1 0.000 12.011
453 CM2 1 PE C3 1 0.000 12.011
454 CM2 1 PE C4 1 0.000 12.011
455 CM2 1 PE C5 1 0.000 12.011
456 CM2 1 PE C6 1 0.000 12.011
457 CM2 1 PE C1 1 0.000 12.011
458 CM2 1 PE C2 1 0.000 12.011
459 CM2 1 PE C3 1 0.000 12.011
460 CM2 1 PE C4 1 0.000 12.011
461 CM2 1 PE C5 1 0.000 12.011
462 CM2 1 PE C6 1 0.000 12.011
463 CM2 1 PE C1 1 0.000 12.011
464 CM2 1 PE C2 1 0.000 12.011
465 CM2 1 PE C3 1 0.000 12.011
466 CM2 1 PE C4 1 0.000 12.011
467 CM2 1 PE C5 1 0.000 12.011
468 CM2 1 PE C6 1 0.000 12.011
469 CM2 1 PE C1 1 0.000 12.011
470 CM2 1 PE C2 1 0.000 12.011
471 CM2 1 PE C3 1 0.000 12.011
472 CM2 1 PE C4 1 0.000 12.011
473 CM2 1 PE C5 1 0.000 12.011
474 CM2 1 PE C6 1 0.000 12.011
475 CM2 1 PE C1 1 0.000 12.011
476 CM2 1 PE C2 1 0.000 12.011
477 CM2 1 PE C3 1 0.000 12.011
478 CM2 1 PE C4 1 0.000 12.011
479 CM2 1 PE C5 1 0.000 12.011
480 CM2 1 PE C6 1 0.000 12.011
481 CM2 1 PE C1 1 0.000 12.011
482 CM2 1 PE C2 1 0.000 12.011
483 CM2 1 PE C3 1 0.000 12.011
484 CM2 1 PE C4 1 0.000 12.011
485 CM2 1 PE C5 1 0.000 12.011
486 CM2 1 PE C6 1 0.000 12.011
487 CM2 1 PE C1 1 0.000 12.011
488 CM2 1 PE C2 1 0.000 12.011
489 CM2 1 PE C3 1 0.000 12.011
490 CM2 1 PE C4 1 0.000 12.011
491 CM2 1 PE C5 1 0.000 12.011
492 CM2 1 PE C6 1 0.000 12.011
493 CM2 1 PE C1 1 0.000 12.011
494 CM2 1 PE C2 1 0.000 12.011
495 CM2 1 PE C3 1 0.000 12.011
496 CM2 1 PE C4 1 0.000 12.011
497 CM2 1 PE C5 1 0.000 12.011
498 CM2 1 PE C6 1 0.000 12.011
499 CM2 1 PE C1 1 0.000 12.011
500 CM2 1 PE C2 1 0.000 12.011
501 CM2 1 PE C3 1 0.000 12.011
502 CM2 1 PE C4 1 0.000 12.011
503 CM2 1 PE C5 1 0.000 12.011
504 CM2 1 PE C6 1 0.000 12.011
505 CM2 1 PE C1 1 0.000 12.011
506 CM2 1 PE C2 1 0.000 12.011
507 CM2 1 PE C3 1 0.000 12.011
508 CM2 1 PE C4 1 0.000 12.011
509 CM2 1 PE C5 1 0.000 12.011
510 CM2 1 PE C6 1 0.000 12.011
511 CM2 1 PE C1 1 0.000 12.011
512 CM2 1 PE C2 1 0.000 12.011
513 CM2 1 PE C3 1 0.000 12.011
514 CM2 1 PE C4 1 0.000 12.011
515 CM2 1 PE C5 1 0.000 12.011
516 CM2 1 PE C6 1 0.000 12.011
517 CM2 1 PE C1 1 0.000 12.011
518 CM2 1 PE C2 1 0.000 12.011
519 CM2 1 PE C3 1 0.000 12.011
520 CM2 1 PE C4 1 0.000 12.011
521 CM2 1 PE C5 1 0.000 12.011
522 CM2 1 PE C6 1 0.000 12.011
523 CM2 1 PE C1 1 0.000 12.011
524 CM2 1 PE C2 1 0.000 12.011
525 CM2 1 PE C3 1 0.000 12.011
526 CM2 1 PE C4 1 0.000 12.011
527 CM2 1 PE C5 1 0.000 12.011
528 CM2 1 PE C6 1 0.000 12.011
529 CM2 1 PE C1 1 0.000 12.011
530 CM2 1 PE C2 1 0.000 12.011
531 CM2 1 PE C3 1 0.000 12.011
532 CM2 1 PE C4 1 0.000 12.011
533 CM2 1 PE C5 1 0.000 12.011
534 CM2 1 PE C6 1 0.000 12.011
535 CM2 1 PE C1 1 0.000 12.011
536 CM2 1 PE C2 1 0.000 12.011
537 CM2 1 PE C3 1 0.000 12.011
538 CM2 1 PE C4 1 0.000 12.011
539 CM2 1 PE C5 1 0.000 12.011
540 CM2 1 PE C6 1 0.000 12.011
;sub
541 Au 0 LAT Au 0 0.000 196.96654
542 Au 0 LAT Au 0 0.000 196.96654
543 Au 0 LAT Au 0 0.000 196.96654
544 Au 0 LAT Au 0 0.000 196.96654
545 Au 0 LAT Au 0 0.000 196.96654
546 Au 0 LAT Au 0 0.000 196.96654
547 Au 0 LAT Au 0 0.000 196.96654
548 Au 0 LAT Au 0 0.000 196.96654
549 Au 0 LAT Au 0 0.000 196.96654
550 Au 0 LAT Au 0 0.000 196.96654
551 Au 0 LAT Au 0 0.000 196.96654
552 Au 0 LAT Au 0 0.000 196.96654
553 Au 0 LAT Au 0 0.000 196.96654
554 Au 0 LAT Au 0 0.000 196.96654
555 Au 0 LAT Au 0 0.000 196.96654
556 Au 0 LAT Au 0 0.000 196.96654
557 Au 0 LAT Au 0 0.000 196.96654
558 Au 0 LAT Au 0 0.000 196.96654
559 Au 0 LAT Au 0 0.000 196.96654
560 Au 0 LAT Au 0 0.000 196.96654
561 Au 0 LAT Au 0 0.000 196.96654
562 Au 0 LAT Au 0 0.000 196.96654
563 Au 0 LAT Au 0 0.000 196.96654
564 Au 0 LAT Au 0 0.000 196.96654
565 Au 0 LAT Au 0 0.000 196.96654
566 Au 0 LAT Au 0 0.000 196.96654
567 Au 0 LAT Au 0 0.000 196.96654
568 Au 0 LAT Au 0 0.000 196.96654
569 Au 0 LAT Au 0 0.000 196.96654
570 Au 0 LAT Au 0 0.000 196.96654
571 Au 0 LAT Au 0 0.000 196.96654
572 Au 0 LAT Au 0 0.000 196.96654
573 Au 0 LAT Au 0 0.000 196.96654
574 Au 0 LAT Au 0 0.000 196.96654
575 Au 0 LAT Au 0 0.000 196.96654
576 Au 0 LAT Au 0 0.000 196.96654
577 Au 0 LAT Au 0 0.000 196.96654
578 Au 0 LAT Au 0 0.000 196.96654
579 Au 0 LAT Au 0 0.000 196.96654
580 Au 0 LAT Au 0 0.000 196.96654
581 Au 0 LAT Au 0 0.000 196.96654
582 Au 0 LAT Au 0 0.000 196.96654
583 Au 0 LAT Au 0 0.000 196.96654
584 Au 0 LAT Au 0 0.000 196.96654
585 Au 0 LAT Au 0 0.000 196.96654
586 Au 0 LAT Au 0 0.000 196.96654
587 Au 0 LAT Au 0 0.000 196.96654
588 Au 0 LAT Au 0 0.000 196.96654
589 Au 0 LAT Au 0 0.000 196.96654
590 Au 0 LAT Au 0 0.000 196.96654
591 Au 0 LAT Au 0 0.000 196.96654
592 Au 0 LAT Au 0 0.000 196.96654
593 Au 0 LAT Au 0 0.000 196.96654
594 Au 0 LAT Au 0 0.000 196.96654
595 Au 0 LAT Au 0 0.000 196.96654
596 Au 0 LAT Au 0 0.000 196.96654
597 Au 0 LAT Au 0 0.000 196.96654
598 Au 0 LAT Au 0 0.000 196.96654
599 Au 0 LAT Au 0 0.000 196.96654
600 Au 0 LAT Au 0 0.000 196.96654
601 Au 0 LAT Au 0 0.000 196.96654
602 Au 0 LAT Au 0 0.000 196.96654
603 Au 0 LAT Au 0 0.000 196.96654
604 Au 0 LAT Au 0 0.000 196.96654
605 Au 0 LAT Au 0 0.000 196.96654
606 Au 0 LAT Au 0 0.000 196.96654
607 Au 0 LAT Au 0 0.000 196.96654
608 Au 0 LAT Au 0 0.000 196.96654
609 Au 0 LAT Au 0 0.000 196.96654
610 Au 0 LAT Au 0 0.000 196.96654
611 Au 0 LAT Au 0 0.000 196.96654
612 Au 0 LAT Au 0 0.000 196.96654
613 Au 0 LAT Au 0 0.000 196.96654
614 Au 0 LAT Au 0 0.000 196.96654
615 Au 0 LAT Au 0 0.000 196.96654
616 Au 0 LAT Au 0 0.000 196.96654
617 Au 0 LAT Au 0 0.000 196.96654
618 Au 0 LAT Au 0 0.000 196.96654
619 Au 0 LAT Au 0 0.000 196.96654
620 Au 0 LAT Au 0 0.000 196.96654
621 Au 0 LAT Au 0 0.000 196.96654
622 Au 0 LAT Au 0 0.000 196.96654
623 Au 0 LAT Au 0 0.000 196.96654
624 Au 0 LAT Au 0 0.000 196.96654
625 Au 0 LAT Au 0 0.000 196.96654
626 Au 0 LAT Au 0 0.000 196.96654
627 Au 0 LAT Au 0 0.000 196.96654
628 Au 0 LAT Au 0 0.000 196.96654
629 Au 0 LAT Au 0 0.000 196.96654
630 Au 0 LAT Au 0 0.000 196.96654
631 Au 0 LAT Au 0 0.000 196.96654
632 Au 0 LAT Au 0 0.000 196.96654
633 Au 0 LAT Au 0 0.000 196.96654
634 Au 0 LAT Au 0 0.000 196.96654
635 Au 0 LAT Au 0 0.000 196.96654
636 Au 0 LAT Au 0 0.000 196.96654
637 Au 0 LAT Au 0 0.000 196.96654
638 Au 0 LAT Au 0 0.000 196.96654
639 Au 0 LAT Au 0 0.000 196.96654
640 Au 0 LAT Au 0 0.000 196.96654
641 Au 0 LAT Au 0 0.000 196.96654
642 Au 0 LAT Au 0 0.000 196.96654
643 Au 0 LAT Au 0 0.000 196.96654
644 Au 0 LAT Au 0 0.000 196.96654
645 Au 0 LAT Au 0 0.000 196.96654
646 Au 0 LAT Au 0 0.000 196.96654
647 Au 0 LAT Au 0 0.000 196.96654
648 Au 0 LAT Au 0 0.000 196.96654
649 Au 0 LAT Au 0 0.000 196.96654
650 Au 0 LAT Au 0 0.000 196.96654
651 Au 0 LAT Au 0 0.000 196.96654
652 Au 0 LAT Au 0 0.000 196.96654
653 Au 0 LAT Au 0 0.000 196.96654
654 Au 0 LAT Au 0 0.000 196.96654
655 Au 0 LAT Au 0 0.000 196.96654
656 Au 0 LAT Au 0 0.000 196.96654
657 Au 0 LAT Au 0 0.000 196.96654
658 Au 0 LAT Au 0 0.000 196.96654
659 Au 0 LAT Au 0 0.000 196.96654
660 Au 0 LAT Au 0 0.000 196.96654
661 Au 0 LAT Au 0 0.000 196.96654
662 Au 0 LAT Au 0 0.000 196.96654
663 Au 0 LAT Au 0 0.000 196.96654
664 Au 0 LAT Au 0 0.000 196.96654
665 Au 0 LAT Au 0 0.000 196.96654
666 Au 0 LAT Au 0 0.000 196.96654
667 Au 0 LAT Au 0 0.000 196.96654
668 Au 0 LAT Au 0 0.000 196.96654
669 Au 0 LAT Au 0 0.000 196.96654
670 Au 0 LAT Au 0 0.000 196.96654
671 Au 0 LAT Au 0 0.000 196.96654
672 Au 0 LAT Au 0 0.000 196.96654
673 Au 0 LAT Au 0 0.000 196.96654
674 Au 0 LAT Au 0 0.000 196.96654
675 Au 0 LAT Au 0 0.000 196.96654
676 Au 0 LAT Au 0 0.000 196.96654
677 Au 0 LAT Au 0 0.000 196.96654
678 Au 0 LAT Au 0 0.000 196.96654
679 Au 0 LAT Au 0 0.000 196.96654
680 Au 0 LAT Au 0 0.000 196.96654
681 Au 0 LAT Au 0 0.000 196.96654
682 Au 0 LAT Au 0 0.000 196.96654
683 Au 0 LAT Au 0 0.000 196.96654
684 Au 0 LAT Au 0 0.000 196.96654
685 Au 0 LAT Au 0 0.000 196.96654
686 Au 0 LAT Au 0 0.000 196.96654
687 Au 0 LAT Au 0 0.000 196.96654
688 Au 0 LAT Au 0 0.000 196.96654
689 Au 0 LAT Au 0 0.000 196.96654
690 Au 0 LAT Au 0 0.000 196.96654
691 Au 0 LAT Au 0 0.000 196.96654
692 Au 0 LAT Au 0 0.000 196.96654
693 Au 0 LAT Au 0 0.000 196.96654
694 Au 0 LAT Au 0 0.000 196.96654
695 Au 0 LAT Au 0 0.000 196.96654
696 Au 0 LAT Au 0 0.000 196.96654
697 Au 0 LAT Au 0 0.000 196.96654
698 Au 0 LAT Au 0 0.000 196.96654
699 Au 0 LAT Au 0 0.000 196.96654
700 Au 0 LAT Au 0 0.000 196.96654
701 Au 0 LAT Au 0 0.000 196.96654
702 Au 0 LAT Au 0 0.000 196.96654
703 Au 0 LAT Au 0 0.000 196.96654
704 Au 0 LAT Au 0 0.000 196.96654
705 Au 0 LAT Au 0 0.000 196.96654
706 Au 0 LAT Au 0 0.000 196.96654
707 Au 0 LAT Au 0 0.000 196.96654
708 Au 0 LAT Au 0 0.000 196.96654
709 Au 0 LAT Au 0 0.000 196.96654
710 Au 0 LAT Au 0 0.000 196.96654
711 Au 0 LAT Au 0 0.000 196.96654
712 Au 0 LAT Au 0 0.000 196.96654
713 Au 0 LAT Au 0 0.000 196.96654
714 Au 0 LAT Au 0 0.000 196.96654
715 Au 0 LAT Au 0 0.000 196.96654
716 Au 0 LAT Au 0 0.000 196.96654
717 Au 0 LAT Au 0 0.000 196.96654
718 Au 0 LAT Au 0 0.000 196.96654
719 Au 0 LAT Au 0 0.000 196.96654
720 Au 0 LAT Au 0 0.000 196.96654
721 Au 0 LAT Au 0 0.000 196.96654
722 Au 0 LAT Au 0 0.000 196.96654
723 Au 0 LAT Au 0 0.000 196.96654
724 Au 0 LAT Au 0 0.000 196.96654
725 Au 0 LAT Au 0 0.000 196.96654
726 Au 0 LAT Au 0 0.000 196.96654
727 Au 0 LAT Au 0 0.000 196.96654
728 Au 0 LAT Au 0 0.000 196.96654
729 Au 0 LAT Au 0 0.000 196.96654
730 Au 0 LAT Au 0 0.000 196.96654
731 Au 0 LAT Au 0 0.000 196.96654
732 Au 0 LAT Au 0 0.000 196.96654
733 Au 0 LAT Au 0 0.000 196.96654
734 Au 0 LAT Au 0 0.000 196.96654
735 Au 0 LAT Au 0 0.000 196.96654
736 Au 0 LAT Au 0 0.000 196.96654
737 Au 0 LAT Au 0 0.000 196.96654
738 Au 0 LAT Au 0 0.000 196.96654
739 Au 0 LAT Au 0 0.000 196.96654
740 Au 0 LAT Au 0 0.000 196.96654
741 Au 0 LAT Au 0 0.000 196.96654
742 Au 0 LAT Au 0 0.000 196.96654
743 Au 0 LAT Au 0 0.000 196.96654
744 Au 0 LAT Au 0 0.000 196.96654
745 Au 0 LAT Au 0 0.000 196.96654
746 Au 0 LAT Au 0 0.000 196.96654
747 Au 0 LAT Au 0 0.000 196.96654
748 Au 0 LAT Au 0 0.000 196.96654
749 Au 0 LAT Au 0 0.000 196.96654
750 Au 0 LAT Au 0 0.000 196.96654
751 Au 0 LAT Au 0 0.000 196.96654
752 Au 0 LAT Au 0 0.000 196.96654
753 Au 0 LAT Au 0 0.000 196.96654
754 Au 0 LAT Au 0 0.000 196.96654
755 Au 0 LAT Au 0 0.000 196.96654
756 Au 0 LAT Au 0 0.000 196.96654
757 Au 0 LAT Au 0 0.000 196.96654
758 Au 0 LAT Au 0 0.000 196.96654
759 Au 0 LAT Au 0 0.000 196.96654
760 Au 0 LAT Au 0 0.000 196.96654
761 Au 0 LAT Au 0 0.000 196.96654
762 Au 0 LAT Au 0 0.000 196.96654
763 Au 0 LAT Au 0 0.000 196.96654
764 Au 0 LAT Au 0 0.000 196.96654
765 Au 0 LAT Au 0 0.000 196.96654
766 Au 0 LAT Au 0 0.000 196.96654
767 Au 0 LAT Au 0 0.000 196.96654
768 Au 0 LAT Au 0 0.000 196.96654
769 Au 0 LAT Au 0 0.000 196.96654
770 Au 0 LAT Au 0 0.000 196.96654
771 Au 0 LAT Au 0 0.000 196.96654
772 Au 0 LAT Au 0 0.000 196.96654
773 Au 0 LAT Au 0 0.000 196.96654
774 Au 0 LAT Au 0 0.000 196.96654
775 Au 0 LAT Au 0 0.000 196.96654
776 Au 0 LAT Au 0 0.000 196.96654
777 Au 0 LAT Au 0 0.000 196.96654
778 Au 0 LAT Au 0 0.000 196.96654
779 Au 0 LAT Au 0 0.000 196.96654
780 Au 0 LAT Au 0 0.000 196.96654
781 Au 0 LAT Au 0 0.000 196.96654
782 Au 0 LAT Au 0 0.000 196.96654
783 Au 0 LAT Au 0 0.000 196.96654
784 Au 0 LAT Au 0 0.000 196.96654
785 Au 0 LAT Au 0 0.000 196.96654
786 Au 0 LAT Au 0 0.000 196.96654
787 Au 0 LAT Au 0 0.000 196.96654
788 Au 0 LAT Au 0 0.000 196.96654
789 Au 0 LAT Au 0 0.000 196.96654
790 Au 0 LAT Au 0 0.000 196.96654
791 Au 0 LAT Au 0 0.000 196.96654
792 Au 0 LAT Au 0 0.000 196.96654
793 Au 0 LAT Au 0 0.000 196.96654
794 Au 0 LAT Au 0 0.000 196.96654
795 Au 0 LAT Au 0 0.000 196.96654
796 Au 0 LAT Au 0 0.000 196.96654
797 Au 0 LAT Au 0 0.000 196.96654
798 Au 0 LAT Au 0 0.000 196.96654
799 Au 0 LAT Au 0 0.000 196.96654
800 Au 0 LAT Au 0 0.000 196.96654
801 Au 0 LAT Au 0 0.000 196.96654
802 Au 0 LAT Au 0 0.000 196.96654
803 Au 0 LAT Au 0 0.000 196.96654
804 Au 0 LAT Au 0 0.000 196.96654
805 Au 0 LAT Au 0 0.000 196.96654
806 Au 0 LAT Au 0 0.000 196.96654
807 Au 0 LAT Au 0 0.000 196.96654
808 Au 0 LAT Au 0 0.000 196.96654
809 Au 0 LAT Au 0 0.000 196.96654
810 Au 0 LAT Au 0 0.000 196.96654
811 Au 0 LAT Au 0 0.000 196.96654
812 Au 0 LAT Au 0 0.000 196.96654
813 Au 0 LAT Au 0 0.000 196.96654
814 Au 0 LAT Au 0 0.000 196.96654
815 Au 0 LAT Au 0 0.000 196.96654
816 Au 0 LAT Au 0 0.000 196.96654
817 Au 0 LAT Au 0 0.000 196.96654
818 Au 0 LAT Au 0 0.000 196.96654
819 Au 0 LAT Au 0 0.000 196.96654
820 Au 0 LAT Au 0 0.000 196.96654
821 Au 0 LAT Au 0 0.000 196.96654
822 Au 0 LAT Au 0 0.000 196.96654
823 Au 0 LAT Au 0 0.000 196.96654
824 Au 0 LAT Au 0 0.000 196.96654
825 Au 0 LAT Au 0 0.000 196.96654
826 Au 0 LAT Au 0 0.000 196.96654
827 Au 0 LAT Au 0 0.000 196.96654
828 Au 0 LAT Au 0 0.000 196.96654
829 Au 0 LAT Au 0 0.000 196.96654
830 Au 0 LAT Au 0 0.000 196.96654
831 Au 0 LAT Au 0 0.000 196.96654
832 Au 0 LAT Au 0 0.000 196.96654
833 Au 0 LAT Au 0 0.000 196.96654
834 Au 0 LAT Au 0 0.000 196.96654
835 Au 0 LAT Au 0 0.000 196.96654
836 Au 0 LAT Au 0 0.000 196.96654
837 Au 0 LAT Au 0 0.000 196.96654
838 Au 0 LAT Au 0 0.000 196.96654
839 Au 0 LAT Au 0 0.000 196.96654
840 Au 0 LAT Au 0 0.000 196.96654
841 Au 0 LAT Au 0 0.000 196.96654
842 Au 0 LAT Au 0 0.000 196.96654
843 Au 0 LAT Au 0 0.000 196.96654
844 Au 0 LAT Au 0 0.000 196.96654
845 Au 0 LAT Au 0 0.000 196.96654
846 Au 0 LAT Au 0 0.000 196.96654
847 Au 0 LAT Au 0 0.000 196.96654
848 Au 0 LAT Au 0 0.000 196.96654
849 Au 0 LAT Au 0 0.000 196.96654
850 Au 0 LAT Au 0 0.000 196.96654
851 Au 0 LAT Au 0 0.000 196.96654
852 Au 0 LAT Au 0 0.000 196.96654
853 Au 0 LAT Au 0 0.000 196.96654
854 Au 0 LAT Au 0 0.000 196.96654
855 Au 0 LAT Au 0 0.000 196.96654
856 Au 0 LAT Au 0 0.000 196.96654
857 Au 0 LAT Au 0 0.000 196.96654
858 Au 0 LAT Au 0 0.000 196.96654
859 Au 0 LAT Au 0 0.000 196.96654
860 Au 0 LAT Au 0 0.000 196.96654
861 Au 0 LAT Au 0 0.000 196.96654
862 Au 0 LAT Au 0 0.000 196.96654
863 Au 0 LAT Au 0 0.000 196.96654
864 Au 0 LAT Au 0 0.000 196.96654
865 Au 0 LAT Au 0 0.000 196.96654
866 Au 0 LAT Au 0 0.000 196.96654
867 Au 0 LAT Au 0 0.000 196.96654
868 Au 0 LAT Au 0 0.000 196.96654
869 Au 0 LAT Au 0 0.000 196.96654
870 Au 0 LAT Au 0 0.000 196.96654
871 Au 0 LAT Au 0 0.000 196.96654
872 Au 0 LAT Au 0 0.000 196.96654
873 Au 0 LAT Au 0 0.000 196.96654
874 Au 0 LAT Au 0 0.000 196.96654
875 Au 0 LAT Au 0 0.000 196.96654
876 Au 0 LAT Au 0 0.000 196.96654
877 Au 0 LAT Au 0 0.000 196.96654
878 Au 0 LAT Au 0 0.000 196.96654
879 Au 0 LAT Au 0 0.000 196.96654
880 Au 0 LAT Au 0 0.000 196.96654
881 Au 0 LAT Au 0 0.000 196.96654
882 Au 0 LAT Au 0 0.000 196.96654
883 Au 0 LAT Au 0 0.000 196.96654
884 Au 0 LAT Au 0 0.000 196.96654
885 Au 0 LAT Au 0 0.000 196.96654
886 Au 0 LAT Au 0 0.000 196.96654
887 Au 0 LAT Au 0 0.000 196.96654
888 Au 0 LAT Au 0 0.000 196.96654
889 Au 0 LAT Au 0 0.000 196.96654
890 Au 0 LAT Au 0 0.000 196.96654
891 Au 0 LAT Au 0 0.000 196.96654
892 Au 0 LAT Au 0 0.000 196.96654
893 Au 0 LAT Au 0 0.000 196.96654
894 Au 0 LAT Au 0 0.000 196.96654
895 Au 0 LAT Au 0 0.000 196.96654
896 Au 0 LAT Au 0 0.000 196.96654
897 Au 0 LAT Au 0 0.000 196.96654
898 Au 0 LAT Au 0 0.000 196.96654
899 Au 0 LAT Au 0 0.000 196.96654
900 Au 0 LAT Au 0 0.000 196.96654
901 Au 0 LAT Au 0 0.000 196.96654
902 Au 0 LAT Au 0 0.000 196.96654
903 Au 0 LAT Au 0 0.000 196.96654
904 Au 0 LAT Au 0 0.000 196.96654
905 Au 0 LAT Au 0 0.000 196.96654
906 Au 0 LAT Au 0 0.000 196.96654
907 Au 0 LAT Au 0 0.000 196.96654
908 Au 0 LAT Au 0 0.000 196.96654
909 Au 0 LAT Au 0 0.000 196.96654
910 Au 0 LAT Au 0 0.000 196.96654
911 Au 0 LAT Au 0 0.000 196.96654
912 Au 0 LAT Au 0 0.000 196.96654
913 Au 0 LAT Au 0 0.000 196.96654
914 Au 0 LAT Au 0 0.000 196.96654
915 Au 0 LAT Au 0 0.000 196.96654
916 Au 0 LAT Au 0 0.000 196.96654
917 Au 0 LAT Au 0 0.000 196.96654
918 Au 0 LAT Au 0 0.000 196.96654
919 Au 0 LAT Au 0 0.000 196.96654
920 Au 0 LAT Au 0 0.000 196.96654
921 Au 0 LAT Au 0 0.000 196.96654
922 Au 0 LAT Au 0 0.000 196.96654
923 Au 0 LAT Au 0 0.000 196.96654
924 Au 0 LAT Au 0 0.000 196.96654
925 Au 0 LAT Au 0 0.000 196.96654
926 Au 0 LAT Au 0 0.000 196.96654
927 Au 0 LAT Au 0 0.000 196.96654
928 Au 0 LAT Au 0 0.000 196.96654
929 Au 0 LAT Au 0 0.000 196.96654
930 Au 0 LAT Au 0 0.000 196.96654
931 Au 0 LAT Au 0 0.000 196.96654
932 Au 0 LAT Au 0 0.000 196.96654
933 Au 0 LAT Au 0 0.000 196.96654
934 Au 0 LAT Au 0 0.000 196.96654
935 Au 0 LAT Au 0 0.000 196.96654
936 Au 0 LAT Au 0 0.000 196.96654
937 Au 0 LAT Au 0 0.000 196.96654
938 Au 0 LAT Au 0 0.000 196.96654
939 Au 0 LAT Au 0 0.000 196.96654
940 Au 0 LAT Au 0 0.000 196.96654
941 Au 0 LAT Au 0 0.000 196.96654
942 Au 0 LAT Au 0 0.000 196.96654
943 Au 0 LAT Au 0 0.000 196.96654
944 Au 0 LAT Au 0 0.000 196.96654
945 Au 0 LAT Au 0 0.000 196.96654
946 Au 0 LAT Au 0 0.000 196.96654
947 Au 0 LAT Au 0 0.000 196.96654
948 Au 0 LAT Au 0 0.000 196.96654
949 Au 0 LAT Au 0 0.000 196.96654
950 Au 0 LAT Au 0 0.000 196.96654
951 Au 0 LAT Au 0 0.000 196.96654
952 Au 0 LAT Au 0 0.000 196.96654
953 Au 0 LAT Au 0 0.000 196.96654
954 Au 0 LAT Au 0 0.000 196.96654
955 Au 0 LAT Au 0 0.000 196.96654
956 Au 0 LAT Au 0 0.000 196.96654
957 Au 0 LAT Au 0 0.000 196.96654
958 Au 0 LAT Au 0 0.000 196.96654
959 Au 0 LAT Au 0 0.000 196.96654
960 Au 0 LAT Au 0 0.000 196.96654
961 Au 0 LAT Au 0 0.000 196.96654
962 Au 0 LAT Au 0 0.000 196.96654
963 Au 0 LAT Au 0 0.000 196.96654
964 Au 0 LAT Au 0 0.000 196.96654
965 Au 0 LAT Au 0 0.000 196.96654
966 Au 0 LAT Au 0 0.000 196.96654
967 Au 0 LAT Au 0 0.000 196.96654
968 Au 0 LAT Au 0 0.000 196.96654
969 Au 0 LAT Au 0 0.000 196.96654
970 Au 0 LAT Au 0 0.000 196.96654
971 Au 0 LAT Au 0 0.000 196.96654
972 Au 0 LAT Au 0 0.000 196.96654
973 Au 0 LAT Au 0 0.000 196.96654
974 Au 0 LAT Au 0 0.000 196.96654
975 Au 0 LAT Au 0 0.000 196.96654
976 Au 0 LAT Au 0 0.000 196.96654
977 Au 0 LAT Au 0 0.000 196.96654
978 Au 0 LAT Au 0 0.000 196.96654
979 Au 0 LAT Au 0 0.000 196.96654
980 Au 0 LAT Au 0 0.000 196.96654
981 Au 0 LAT Au 0 0.000 196.96654
982 Au 0 LAT Au 0 0.000 196.96654
983 Au 0 LAT Au 0 0.000 196.96654
984 Au 0 LAT Au 0 0.000 196.96654
985 Au 0 LAT Au 0 0.000 196.96654
986 Au 0 LAT Au 0 0.000 196.96654
987 Au 0 LAT Au 0 0.000 196.96654
988 Au 0 LAT Au 0 0.000 196.96654
989 Au 0 LAT Au 0 0.000 196.96654
990 Au 0 LAT Au 0 0.000 196.96654
991 Au 0 LAT Au 0 0.000 196.96654
992 Au 0 LAT Au 0 0.000 196.96654
993 Au 0 LAT Au 0 0.000 196.96654
994 Au 0 LAT Au 0 0.000 196.96654
995 Au 0 LAT Au 0 0.000 196.96654
996 Au 0 LAT Au 0 0.000 196.96654
997 Au 0 LAT Au 0 0.000 196.96654
998 Au 0 LAT Au 0 0.000 196.96654
999 Au 0 LAT Au 0 0.000 196.96654
1000 Au 0 LAT Au 0 0.000 196.96654
1001 Au 0 LAT Au 0 0.000 196.96654
1002 Au 0 LAT Au 0 0.000 196.96654
1003 Au 0 LAT Au 0 0.000 196.96654
1004 Au 0 LAT Au 0 0.000 196.96654
1005 Au 0 LAT Au 0 0.000 196.96654
1006 Au 0 LAT Au 0 0.000 196.96654
1007 Au 0 LAT Au 0 0.000 196.96654
1008 Au 0 LAT Au 0 0.000 196.96654
1009 Au 0 LAT Au 0 0.000 196.96654
1010 Au 0 LAT Au 0 0.000 196.96654
1011 Au 0 LAT Au 0 0.000 196.96654
1012 Au 0 LAT Au 0 0.000 196.96654
1013 Au 0 LAT Au 0 0.000 196.96654
1014 Au 0 LAT Au 0 0.000 196.96654
1015 Au 0 LAT Au 0 0.000 196.96654
1016 Au 0 LAT Au 0 0.000 196.96654
1017 Au 0 LAT Au 0 0.000 196.96654
1018 Au 0 LAT Au 0 0.000 196.96654
1019 Au 0 LAT Au 0 0.000 196.96654
1020 Au 0 LAT Au 0 0.000 196.96654
1021 Au 0 LAT Au 0 0.000 196.96654
1022 Au 0 LAT Au 0 0.000 196.96654
1023 Au 0 LAT Au 0 0.000 196.96654
1024 Au 0 LAT Au 0 0.000 196.96654
1025 Au 0 LAT Au 0 0.000 196.96654
1026 Au 0 LAT Au 0 0.000 196.96654
1027 Au 0 LAT Au 0 0.000 196.96654
1028 Au 0 LAT Au 0 0.000 196.96654
1029 Au 0 LAT Au 0 0.000 196.96654
1030 Au 0 LAT Au 0 0.000 196.96654
1031 Au 0 LAT Au 0 0.000 196.96654
1032 Au 0 LAT Au 0 0.000 196.96654
1033 Au 0 LAT Au 0 0.000 196.96654
1034 Au 0 LAT Au 0 0.000 196.96654
1035 Au 0 LAT Au 0 0.000 196.96654
1036 Au 0 LAT Au 0 0.000 196.96654
1037 Au 0 LAT Au 0 0.000 196.96654
1038 Au 0 LAT Au 0 0.000 196.96654
1039 Au 0 LAT Au 0 0.000 196.96654
1040 Au 0 LAT Au 0 0.000 196.96654
1041 Au 0 LAT Au 0 0.000 196.96654
1042 Au 0 LAT Au 0 0.000 196.96654
1043 Au 0 LAT Au 0 0.000 196.96654
1044 Au 0 LAT Au 0 0.000 196.96654
1045 Au 0 LAT Au 0 0.000 196.96654
1046 Au 0 LAT Au 0 0.000 196.96654
1047 Au 0 LAT Au 0 0.000 196.96654
1048 Au 0 LAT Au 0 0.000 196.96654
1049 Au 0 LAT Au 0 0.000 196.96654
1050 Au 0 LAT Au 0 0.000 196.96654
1051 Au 0 LAT Au 0 0.000 196.96654
1052 Au 0 LAT Au 0 0.000 196.96654
1053 Au 0 LAT Au 0 0.000 196.96654
1054 Au 0 LAT Au 0 0.000 196.96654
1055 Au 0 LAT Au 0 0.000 196.96654
1056 Au 0 LAT Au 0 0.000 196.96654
1057 Au 0 LAT Au 0 0.000 196.96654
1058 Au 0 LAT Au 0 0.000 196.96654
1059 Au 0 LAT Au 0 0.000 196.96654
1060 Au 0 LAT Au 0 0.000 196.96654
1061 Au 0 LAT Au 0 0.000 196.96654
1062 Au 0 LAT Au 0 0.000 196.96654
1063 Au 0 LAT Au 0 0.000 196.96654
1064 Au 0 LAT Au 0 0.000 196.96654
1065 Au 0 LAT Au 0 0.000 196.96654
1066 Au 0 LAT Au 0 0.000 196.96654
1067 Au 0 LAT Au 0 0.000 196.96654
1068 Au 0 LAT Au 0 0.000 196.96654
1069 Au 0 LAT Au 0 0.000 196.96654
1070 Au 0 LAT Au 0 0.000 196.96654
1071 Au 0 LAT Au 0 0.000 196.96654
1072 Au 0 LAT Au 0 0.000 196.96654
1073 Au 0 LAT Au 0 0.000 196.96654
1074 Au 0 LAT Au 0 0.000 196.96654
1075 Au 0 LAT Au 0 0.000 196.96654
1076 Au 0 LAT Au 0 0.000 196.96654
1077 Au 0 LAT Au 0 0.000 196.96654
1078 Au 0 LAT Au 0 0.000 196.96654
1079 Au 0 LAT Au 0 0.000 196.96654
1080 Au 0 LAT Au 0 0.000 196.96654
1081 Au 0 LAT Au 0 0.000 196.96654
1082 Au 0 LAT Au 0 0.000 196.96654
1083 Au 0 LAT Au 0 0.000 196.96654
1084 Au 0 LAT Au 0 0.000 196.96654
1085 Au 0 LAT Au 0 0.000 196.96654
1086 Au 0 LAT Au 0 0.000 196.96654
1087 Au 0 LAT Au 0 0.000 196.96654
1088 Au 0 LAT Au 0 0.000 196.96654
1089 Au 0 LAT Au 0 0.000 196.96654
1090 Au 0 LAT Au 0 0.000 196.96654
1091 Au 0 LAT Au 0 0.000 196.96654
1092 Au 0 LAT Au 0 0.000 196.96654
1093 Au 0 LAT Au 0 0.000 196.96654
1094 Au 0 LAT Au 0 0.000 196.96654
1095 Au 0 LAT Au 0 0.000 196.96654
1096 Au 0 LAT Au 0 0.000 196.96654
1097 Au 0 LAT Au 0 0.000 196.96654
1098 Au 0 LAT Au 0 0.000 196.96654
1099 Au 0 LAT Au 0 0.000 196.96654
1100 Au 0 LAT Au 0 0.000 196.96654
1101 Au 0 LAT Au 0 0.000 196.96654
1102 Au 0 LAT Au 0 0.000 196.96654
1103 Au 0 LAT Au 0 0.000 196.96654
1104 Au 0 LAT Au 0 0.000 196.96654
1105 Au 0 LAT Au 0 0.000 196.96654
1106 Au 0 LAT Au 0 0.000 196.96654
1107 Au 0 LAT Au 0 0.000 196.96654
1108 Au 0 LAT Au 0 0.000 196.96654
1109 Au 0 LAT Au 0 0.000 196.96654
1110 Au 0 LAT Au 0 0.000 196.96654
1111 Au 0 LAT Au 0 0.000 196.96654
1112 Au 0 LAT Au 0 0.000 196.96654
1113 Au 0 LAT Au 0 0.000 196.96654
1114 Au 0 LAT Au 0 0.000 196.96654
1115 Au 0 LAT Au 0 0.000 196.96654
1116 Au 0 LAT Au 0 0.000 196.96654
1117 Au 0 LAT Au 0 0.000 196.96654
1118 Au 0 LAT Au 0 0.000 196.96654
1119 Au 0 LAT Au 0 0.000 196.96654
1120 Au 0 LAT Au 0 0.000 196.96654
1121 Au 0 LAT Au 0 0.000 196.96654
1122 Au 0 LAT Au 0 0.000 196.96654
1123 Au 0 LAT Au 0 0.000 196.96654
1124 Au 0 LAT Au 0 0.000 196.96654
1125 Au 0 LAT Au 0 0.000 196.96654
1126 Au 0 LAT Au 0 0.000 196.96654
1127 Au 0 LAT Au 0 0.000 196.96654
1128 Au 0 LAT Au 0 0.000 196.96654
1129 Au 0 LAT Au 0 0.000 196.96654
1130 Au 0 LAT Au 0 0.000 196.96654
1131 Au 0 LAT Au 0 0.000 196.96654
1132 Au 0 LAT Au 0 0.000 196.96654
1133 Au 0 LAT Au 0 0.000 196.96654
1134 Au 0 LAT Au 0 0.000 196.96654
1135 Au 0 LAT Au 0 0.000 196.96654
1136 Au 0 LAT Au 0 0.000 196.96654
1137 Au 0 LAT Au 0 0.000 196.96654
1138 Au 0 LAT Au 0 0.000 196.96654
1139 Au 0 LAT Au 0 0.000 196.96654
1140 Au 0 LAT Au 0 0.000 196.96654
1141 Au 0 LAT Au 0 0.000 196.96654
1142 Au 0 LAT Au 0 0.000 196.96654
1143 Au 0 LAT Au 0 0.000 196.96654
1144 Au 0 LAT Au 0 0.000 196.96654
1145 Au 0 LAT Au 0 0.000 196.96654
1146 Au 0 LAT Au 0 0.000 196.96654
1147 Au 0 LAT Au 0 0.000 196.96654
1148 Au 0 LAT Au 0 0.000 196.96654
1149 Au 0 LAT Au 0 0.000 196.96654
1150 Au 0 LAT Au 0 0.000 196.96654
1151 Au 0 LAT Au 0 0.000 196.96654
1152 Au 0 LAT Au 0 0.000 196.96654
1153 Au 0 LAT Au 0 0.000 196.96654
1154 Au 0 LAT Au 0 0.000 196.96654
1155 Au 0 LAT Au 0 0.000 196.96654
1156 Au 0 LAT Au 0 0.000 196.96654
1157 Au 0 LAT Au 0 0.000 196.96654
1158 Au 0 LAT Au 0 0.000 196.96654
1159 Au 0 LAT Au 0 0.000 196.96654
1160 Au 0 LAT Au 0 0.000 196.96654
1161 Au 0 LAT Au 0 0.000 196.96654
1162 Au 0 LAT Au 0 0.000 196.96654
1163 Au 0 LAT Au 0 0.000 196.96654
1164 Au 0 LAT Au 0 0.000 196.96654
1165 Au 0 LAT Au 0 0.000 196.96654
1166 Au 0 LAT Au 0 0.000 196.96654
1167 Au 0 LAT Au 0 0.000 196.96654
1168 Au 0 LAT Au 0 0.000 196.96654
1169 Au 0 LAT Au 0 0.000 196.96654
1170 Au 0 LAT Au 0 0.000 196.96654
1171 Au 0 LAT Au 0 0.000 196.96654
1172 Au 0 LAT Au 0 0.000 196.96654
1173 Au 0 LAT Au 0 0.000 196.96654
1174 Au 0 LAT Au 0 0.000 196.96654
1175 Au 0 LAT Au 0 0.000 196.96654
1176 Au 0 LAT Au 0 0.000 196.96654
1177 Au 0 LAT Au 0 0.000 196.96654
1178 Au 0 LAT Au 0 0.000 196.96654
1179 Au 0 LAT Au 0 0.000 196.96654
1180 Au 0 LAT Au 0 0.000 196.96654
1181 Au 0 LAT Au 0 0.000 196.96654
1182 Au 0 LAT Au 0 0.000 196.96654
1183 Au 0 LAT Au 0 0.000 196.96654
1184 Au 0 LAT Au 0 0.000 196.96654
1185 Au 0 LAT Au 0 0.000 196.96654
1186 Au 0 LAT Au 0 0.000 196.96654
1187 Au 0 LAT Au 0 0.000 196.96654
1188 Au 0 LAT Au 0 0.000 196.96654
1189 Au 0 LAT Au 0 0.000 196.96654
1190 Au 0 LAT Au 0 0.000 196.96654
1191 Au 0 LAT Au 0 0.000 196.96654
1192 Au 0 LAT Au 0 0.000 196.96654
1193 Au 0 LAT Au 0 0.000 196.96654
1194 Au 0 LAT Au 0 0.000 196.96654
1195 Au 0 LAT Au 0 0.000 196.96654
1196 Au 0 LAT Au 0 0.000 196.96654
1197 Au 0 LAT Au 0 0.000 196.96654
1198 Au 0 LAT Au 0 0.000 196.96654
1199 Au 0 LAT Au 0 0.000 196.96654
1200 Au 0 LAT Au 0 0.000 196.96654
1201 Au 0 LAT Au 0 0.000 196.96654
1202 Au 0 LAT Au 0 0.000 196.96654
1203 Au 0 LAT Au 0 0.000 196.96654
1204 Au 0 LAT Au 0 0.000 196.96654
1205 Au 0 LAT Au 0 0.000 196.96654
1206 Au 0 LAT Au 0 0.000 196.96654
1207 Au 0 LAT Au 0 0.000 196.96654
1208 Au 0 LAT Au 0 0.000 196.96654
1209 Au 0 LAT Au 0 0.000 196.96654
1210 Au 0 LAT Au 0 0.000 196.96654
1211 Au 0 LAT Au 0 0.000 196.96654
1212 Au 0 LAT Au 0 0.000 196.96654
1213 Au 0 LAT Au 0 0.000 196.96654
1214 Au 0 LAT Au 0 0.000 196.96654
1215 Au 0 LAT Au 0 0.000 196.96654
1216 Au 0 LAT Au 0 0.000 196.96654
1217 Au 0 LAT Au 0 0.000 196.96654
1218 Au 0 LAT Au 0 0.000 196.96654
1219 Au 0 LAT Au 0 0.000 196.96654
1220 Au 0 LAT Au 0 0.000 196.96654
1221 Au 0 LAT Au 0 0.000 196.96654
1222 Au 0 LAT Au 0 0.000 196.96654
1223 Au 0 LAT Au 0 0.000 196.96654
1224 Au 0 LAT Au 0 0.000 196.96654
1225 Au 0 LAT Au 0 0.000 196.96654
1226 Au 0 LAT Au 0 0.000 196.96654
1227 Au 0 LAT Au 0 0.000 196.96654
1228 Au 0 LAT Au 0 0.000 196.96654
1229 Au 0 LAT Au 0 0.000 196.96654
1230 Au 0 LAT Au 0 0.000 196.96654
1231 Au 0 LAT Au 0 0.000 196.96654
1232 Au 0 LAT Au 0 0.000 196.96654
1233 Au 0 LAT Au 0 0.000 196.96654
1234 Au 0 LAT Au 0 0.000 196.96654
1235 Au 0 LAT Au 0 0.000 196.96654
1236 Au 0 LAT Au 0 0.000 196.96654
1237 Au 0 LAT Au 0 0.000 196.96654
1238 Au 0 LAT Au 0 0.000 196.96654
1239 Au 0 LAT Au 0 0.000 196.96654
1240 Au 0 LAT Au 0 0.000 196.96654
1241 Au 0 LAT Au 0 0.000 196.96654
1242 Au 0 LAT Au 0 0.000 196.96654
1243 Au 0 LAT Au 0 0.000 196.96654
1244 Au 0 LAT Au 0 0.000 196.96654
1245 Au 0 LAT Au 0 0.000 196.96654
1246 Au 0 LAT Au 0 0.000 196.96654
1247 Au 0 LAT Au 0 0.000 196.96654
1248 Au 0 LAT Au 0 0.000 196.96654
1249 Au 0 LAT Au 0 0.000 196.96654
1250 Au 0 LAT Au 0 0.000 196.96654
1251 Au 0 LAT Au 0 0.000 196.96654
1252 Au 0 LAT Au 0 0.000 196.96654
1253 Au 0 LAT Au 0 0.000 196.96654
1254 Au 0 LAT Au 0 0.000 196.96654
1255 Au 0 LAT Au 0 0.000 196.96654
1256 Au 0 LAT Au 0 0.000 196.96654
1257 Au 0 LAT Au 0 0.000 196.96654
1258 Au 0 LAT Au 0 0.000 196.96654
1259 Au 0 LAT Au 0 0.000 196.96654
1260 Au 0 LAT Au 0 0.000 196.96654
1261 Au 0 LAT Au 0 0.000 196.96654
1262 Au 0 LAT Au 0 0.000 196.96654
1263 Au 0 LAT Au 0 0.000 196.96654
1264 Au 0 LAT Au 0 0.000 196.96654
1265 Au 0 LAT Au 0 0.000 196.96654
1266 Au 0 LAT Au 0 0.000 196.96654
1267 Au 0 LAT Au 0 0.000 196.96654
1268 Au 0 LAT Au 0 0.000 196.96654
1269 Au 0 LAT Au 0 0.000 196.96654
1270 Au 0 LAT Au 0 0.000 196.96654
1271 Au 0 LAT Au 0 0.000 196.96654
1272 Au 0 LAT Au 0 0.000 196.96654
1273 Au 0 LAT Au 0 0.000 196.96654
1274 Au 0 LAT Au 0 0.000 196.96654
1275 Au 0 LAT Au 0 0.000 196.96654
1276 Au 0 LAT Au 0 0.000 196.96654
1277 Au 0 LAT Au 0 0.000 196.96654
1278 Au 0 LAT Au 0 0.000 196.96654
1279 Au 0 LAT Au 0 0.000 196.96654
1280 Au 0 LAT Au 0 0.000 196.96654
1281 Au 0 LAT Au 0 0.000 196.96654
1282 Au 0 LAT Au 0 0.000 196.96654
1283 Au 0 LAT Au 0 0.000 196.96654
1284 Au 0 LAT Au 0 0.000 196.96654
1285 Au 0 LAT Au 0 0.000 196.96654
1286 Au 0 LAT Au 0 0.000 196.96654
1287 Au 0 LAT Au 0 0.000 196.96654
1288 Au 0 LAT Au 0 0.000 196.96654
1289 Au 0 LAT Au 0 0.000 196.96654
1290 Au 0 LAT Au 0 0.000 196.96654
1291 Au 0 LAT Au 0 0.000 196.96654
1292 Au 0 LAT Au 0 0.000 196.96654
1293 Au 0 LAT Au 0 0.000 196.96654
1294 Au 0 LAT Au 0 0.000 196.96654
1295 Au 0 LAT Au 0 0.000 196.96654
1296 Au 0 LAT Au 0 0.000 196.96654
1297 Au 0 LAT Au 0 0.000 196.96654
1298 Au 0 LAT Au 0 0.000 196.96654
1299 Au 0 LAT Au 0 0.000 196.96654
1300 Au 0 LAT Au 0 0.000 196.96654
1301 Au 0 LAT Au 0 0.000 196.96654
1302 Au 0 LAT Au 0 0.000 196.96654
1303 Au 0 LAT Au 0 0.000 196.96654
1304 Au 0 LAT Au 0 0.000 196.96654
1305 Au 0 LAT Au 0 0.000 196.96654
1306 Au 0 LAT Au 0 0.000 196.96654
1307 Au 0 LAT Au 0 0.000 196.96654
1308 Au 0 LAT Au 0 0.000 196.96654
1309 Au 0 LAT Au 0 0.000 196.96654
1310 Au 0 LAT Au 0 0.000 196.96654
1311 Au 0 LAT Au 0 0.000 196.96654
1312 Au 0 LAT Au 0 0.000 196.96654
1313 Au 0 LAT Au 0 0.000 196.96654
1314 Au 0 LAT Au 0 0.000 196.96654
1315 Au 0 LAT Au 0 0.000 196.96654
1316 Au 0 LAT Au 0 0.000 196.96654
1317 Au 0 LAT Au 0 0.000 196.96654
1318 Au 0 LAT Au 0 0.000 196.96654
1319 Au 0 LAT Au 0 0.000 196.96654
1320 Au 0 LAT Au 0 0.000 196.96654
1321 Au 0 LAT Au 0 0.000 196.96654
1322 Au 0 LAT Au 0 0.000 196.96654
1323 Au 0 LAT Au 0 0.000 196.96654
1324 Au 0 LAT Au 0 0.000 196.96654
1325 Au 0 LAT Au 0 0.000 196.96654
1326 Au 0 LAT Au 0 0.000 196.96654
1327 Au 0 LAT Au 0 0.000 196.96654
1328 Au 0 LAT Au 0 0.000 196.96654
1329 Au 0 LAT Au 0 0.000 196.96654
1330 Au 0 LAT Au 0 0.000 196.96654
1331 Au 0 LAT Au 0 0.000 196.96654
1332 Au 0 LAT Au 0 0.000 196.96654
1333 Au 0 LAT Au 0 0.000 196.96654
1334 Au 0 LAT Au 0 0.000 196.96654
1335 Au 0 LAT Au 0 0.000 196.96654
1336 Au 0 LAT Au 0 0.000 196.96654
1337 Au 0 LAT Au 0 0.000 196.96654
1338 Au 0 LAT Au 0 0.000 196.96654
1339 Au 0 LAT Au 0 0.000 196.96654
1340 Au 0 LAT Au 0 0.000 196.96654
1341 Au 0 LAT Au 0 0.000 196.96654
1342 Au 0 LAT Au 0 0.000 196.96654
1343 Au 0 LAT Au 0 0.000 196.96654
1344 Au 0 LAT Au 0 0.000 196.96654
1345 Au 0 LAT Au 0 0.000 196.96654
1346 Au 0 LAT Au 0 0.000 196.96654
1347 Au 0 LAT Au 0 0.000 196.96654
1348 Au 0 LAT Au 0 0.000 196.96654
1349 Au 0 LAT Au 0 0.000 196.96654
1350 Au 0 LAT Au 0 0.000 196.96654
1351 Au 0 LAT Au 0 0.000 196.96654
1352 Au 0 LAT Au 0 0.000 196.96654
1353 Au 0 LAT Au 0 0.000 196.96654
1354 Au 0 LAT Au 0 0.000 196.96654
1355 Au 0 LAT Au 0 0.000 196.96654
1356 Au 0 LAT Au 0 0.000 196.96654
1357 Au 0 LAT Au 0 0.000 196.96654
1358 Au 0 LAT Au 0 0.000 196.96654
1359 Au 0 LAT Au 0 0.000 196.96654
1360 Au 0 LAT Au 0 0.000 196.96654
1361 Au 0 LAT Au 0 0.000 196.96654
1362 Au 0 LAT Au 0 0.000 196.96654
1363 Au 0 LAT Au 0 0.000 196.96654
1364 Au 0 LAT Au 0 0.000 196.96654
1365 Au 0 LAT Au 0 0.000 196.96654
1366 Au 0 LAT Au 0 0.000 196.96654
1367 Au 0 LAT Au 0 0.000 196.96654
1368 Au 0 LAT Au 0 0.000 196.96654
1369 Au 0 LAT Au 0 0.000 196.96654
1370 Au 0 LAT Au 0 0.000 196.96654
1371 Au 0 LAT Au 0 0.000 196.96654
1372 Au 0 LAT Au 0 0.000 196.96654
1373 Au 0 LAT Au 0 0.000 196.96654
1374 Au 0 LAT Au 0 0.000 196.96654
1375 Au 0 LAT Au 0 0.000 196.96654
1376 Au 0 LAT Au 0 0.000 196.96654
1377 Au 0 LAT Au 0 0.000 196.96654
1378 Au 0 LAT Au 0 0.000 196.96654
1379 Au 0 LAT Au 0 0.000 196.96654
1380 Au 0 LAT Au 0 0.000 196.96654
1381 Au 0 LAT Au 0 0.000 196.96654
1382 Au 0 LAT Au 0 0.000 196.96654
1383 Au 0 LAT Au 0 0.000 196.96654
1384 Au 0 LAT Au 0 0.000 196.96654
1385 Au 0 LAT Au 0 0.000 196.96654
1386 Au 0 LAT Au 0 0.000 196.96654
1387 Au 0 LAT Au 0 0.000 196.96654
1388 Au 0 LAT Au 0 0.000 196.96654
1389 Au 0 LAT Au 0 0.000 196.96654
1390 Au 0 LAT Au 0 0.000 196.96654
1391 Au 0 LAT Au 0 0.000 196.96654
1392 Au 0 LAT Au 0 0.000 196.96654
1393 Au 0 LAT Au 0 0.000 196.96654
1394 Au 0 LAT Au 0 0.000 196.96654
1395 Au 0 LAT Au 0 0.000 196.96654
1396 Au 0 LAT Au 0 0.000 196.96654
1397 Au 0 LAT Au 0 0.000 196.96654
1398 Au 0 LAT Au 0 0.000 196.96654
1399 Au 0 LAT Au 0 0.000 196.96654
1400 Au 0 LAT Au 0 0.000 196.96654
1401 Au 0 LAT Au 0 0.000 196.96654
1402 Au 0 LAT Au 0 0.000 196.96654
1403 Au 0 LAT Au 0 0.000 196.96654
1404 Au 0 LAT Au 0 0.000 196.96654
1405 Au 0 LAT Au 0 0.000 196.96654
1406 Au 0 LAT Au 0 0.000 196.96654
1407 Au 0 LAT Au 0 0.000 196.96654
1408 Au 0 LAT Au 0 0.000 196.96654
1409 Au 0 LAT Au 0 0.000 196.96654
1410 Au 0 LAT Au 0 0.000 196.96654
1411 Au 0 LAT Au 0 0.000 196.96654
1412 Au 0 LAT Au 0 0.000 196.96654
1413 Au 0 LAT Au 0 0.000 196.96654
1414 Au 0 LAT Au 0 0.000 196.96654
1415 Au 0 LAT Au 0 0.000 196.96654
1416 Au 0 LAT Au 0 0.000 196.96654
1417 Au 0 LAT Au 0 0.000 196.96654
1418 Au 0 LAT Au 0 0.000 196.96654
1419 Au 0 LAT Au 0 0.000 196.96654
1420 Au 0 LAT Au 0 0.000 196.96654
1421 Au 0 LAT Au 0 0.000 196.96654
1422 Au 0 LAT Au 0 0.000 196.96654
1423 Au 0 LAT Au 0 0.000 196.96654
1424 Au 0 LAT Au 0 0.000 196.96654
1425 Au 0 LAT Au 0 0.000 196.96654
1426 Au 0 LAT Au 0 0.000 196.96654
1427 Au 0 LAT Au 0 0.000 196.96654
1428 Au 0 LAT Au 0 0.000 196.96654
1429 Au 0 LAT Au 0 0.000 196.96654
1430 Au 0 LAT Au 0 0.000 196.96654
1431 Au 0 LAT Au 0 0.000 196.96654
1432 Au 0 LAT Au 0 0.000 196.96654
1433 Au 0 LAT Au 0 0.000 196.96654
1434 Au 0 LAT Au 0 0.000 196.96654
1435 Au 0 LAT Au 0 0.000 196.96654
1436 Au 0 LAT Au 0 0.000 196.96654
1437 Au 0 LAT Au 0 0.000 196.96654
1438 Au 0 LAT Au 0 0.000 196.96654
1439 Au 0 LAT Au 0 0.000 196.96654
1440 Au 0 LAT Au 0 0.000 196.96654
1441 Au 0 LAT Au 0 0.000 196.96654
1442 Au 0 LAT Au 0 0.000 196.96654
1443 Au 0 LAT Au 0 0.000 196.96654
1444 Au 0 LAT Au 0 0.000 196.96654
1445 Au 0 LAT Au 0 0.000 196.96654
1446 Au 0 LAT Au 0 0.000 196.96654
1447 Au 0 LAT Au 0 0.000 196.96654
1448 Au 0 LAT Au 0 0.000 196.96654
1449 Au 0 LAT Au 0 0.000 196.96654
1450 Au 0 LAT Au 0 0.000 196.96654
1451 Au 0 LAT Au 0 0.000 196.96654
1452 Au 0 LAT Au 0 0.000 196.96654
1453 Au 0 LAT Au 0 0.000 196.96654
1454 Au 0 LAT Au 0 0.000 196.96654
1455 Au 0 LAT Au 0 0.000 196.96654
1456 Au 0 LAT Au 0 0.000 196.96654
1457 Au 0 LAT Au 0 0.000 196.96654
1458 Au 0 LAT Au 0 0.000 196.96654
1459 Au 0 LAT Au 0 0.000 196.96654
1460 Au 0 LAT Au 0 0.000 196.96654
1461 Au 0 LAT Au 0 0.000 196.96654
1462 Au 0 LAT Au 0 0.000 196.96654
1463 Au 0 LAT Au 0 0.000 196.96654
1464 Au 0 LAT Au 0 0.000 196.96654
1465 Au 0 LAT Au 0 0.000 196.96654
1466 Au 0 LAT Au 0 0.000 196.96654
1467 Au 0 LAT Au 0 0.000 196.96654
1468 Au 0 LAT Au 0 0.000 196.96654
1469 Au 0 LAT Au 0 0.000 196.96654
1470 Au 0 LAT Au 0 0.000 196.96654
1471 Au 0 LAT Au 0 0.000 196.96654
1472 Au 0 LAT Au 0 0.000 196.96654
1473 Au 0 LAT Au 0 0.000 196.96654
1474 Au 0 LAT Au 0 0.000 196.96654
1475 Au 0 LAT Au 0 0.000 196.96654
1476 Au 0 LAT Au 0 0.000 196.96654
1477 Au 0 LAT Au 0 0.000 196.96654
1478 Au 0 LAT Au 0 0.000 196.96654
1479 Au 0 LAT Au 0 0.000 196.96654
1480 Au 0 LAT Au 0 0.000 196.96654
1481 Au 0 LAT Au 0 0.000 196.96654
1482 Au 0 LAT Au 0 0.000 196.96654
1483 Au 0 LAT Au 0 0.000 196.96654
1484 Au 0 LAT Au 0 0.000 196.96654
1485 Au 0 LAT Au 0 0.000 196.96654
1486 Au 0 LAT Au 0 0.000 196.96654
1487 Au 0 LAT Au 0 0.000 196.96654
1488 Au 0 LAT Au 0 0.000 196.96654
1489 Au 0 LAT Au 0 0.000 196.96654
1490 Au 0 LAT Au 0 0.000 196.96654
1491 Au 0 LAT Au 0 0.000 196.96654
1492 Au 0 LAT Au 0 0.000 196.96654
1493 Au 0 LAT Au 0 0.000 196.96654
1494 Au 0 LAT Au 0 0.000 196.96654
1495 Au 0 LAT Au 0 0.000 196.96654
1496 Au 0 LAT Au 0 0.000 196.96654
1497 Au 0 LAT Au 0 0.000 196.96654
1498 Au 0 LAT Au 0 0.000 196.96654
1499 Au 0 LAT Au 0 0.000 196.96654
1500 Au 0 LAT Au 0 0.000 196.96654
1501 Au 0 LAT Au 0 0.000 196.96654
1502 Au 0 LAT Au 0 0.000 196.96654
1503 Au 0 LAT Au 0 0.000 196.96654
1504 Au 0 LAT Au 0 0.000 196.96654
1505 Au 0 LAT Au 0 0.000 196.96654
1506 Au 0 LAT Au 0 0.000 196.96654
1507 Au 0 LAT Au 0 0.000 196.96654
1508 Au 0 LAT Au 0 0.000 196.96654
1509 Au 0 LAT Au 0 0.000 196.96654
1510 Au 0 LAT Au 0 0.000 196.96654
1511 Au 0 LAT Au 0 0.000 196.96654
1512 Au 0 LAT Au 0 0.000 196.96654
1513 Au 0 LAT Au 0 0.000 196.96654
1514 Au 0 LAT Au 0 0.000 196.96654
1515 Au 0 LAT Au 0 0.000 196.96654
1516 Au 0 LAT Au 0 0.000 196.96654
1517 Au 0 LAT Au 0 0.000 196.96654
1518 Au 0 LAT Au 0 0.000 196.96654
1519 Au 0 LAT Au 0 0.000 196.96654
1520 Au 0 LAT Au 0 0.000 196.96654
1521 Au 0 LAT Au 0 0.000 196.96654
1522 Au 0 LAT Au 0 0.000 196.96654
1523 Au 0 LAT Au 0 0.000 196.96654
1524 Au 0 LAT Au 0 0.000 196.96654
1525 Au 0 LAT Au 0 0.000 196.96654
1526 Au 0 LAT Au 0 0.000 196.96654
1527 Au 0 LAT Au 0 0.000 196.96654
1528 Au 0 LAT Au 0 0.000 196.96654
1529 Au 0 LAT Au 0 0.000 196.96654
1530 Au 0 LAT Au 0 0.000 196.96654
1531 Au 0 LAT Au 0 0.000 196.96654
1532 Au 0 LAT Au 0 0.000 196.96654
1533 Au 0 LAT Au 0 0.000 196.96654
1534 Au 0 LAT Au 0 0.000 196.96654
1535 Au 0 LAT Au 0 0.000 196.96654
1536 Au 0 LAT Au 0 0.000 196.96654
1537 Au 0 LAT Au 0 0.000 196.96654
1538 Au 0 LAT Au 0 0.000 196.96654
1539 Au 0 LAT Au 0 0.000 196.96654
1540 Au 0 LAT Au 0 0.000 196.96654
1541 Au 0 LAT Au 0 0.000 196.96654
1542 Au 0 LAT Au 0 0.000 196.96654
1543 Au 0 LAT Au 0 0.000 196.96654
1544 Au 0 LAT Au 0 0.000 196.96654
1545 Au 0 LAT Au 0 0.000 196.96654
1546 Au 0 LAT Au 0 0.000 196.96654
1547 Au 0 LAT Au 0 0.000 196.96654
1548 Au 0 LAT Au 0 0.000 196.96654
1549 Au 0 LAT Au 0 0.000 196.96654
1550 Au 0 LAT Au 0 0.000 196.96654
1551 Au 0 LAT Au 0 0.000 196.96654
1552 Au 0 LAT Au 0 0.000 196.96654
1553 Au 0 LAT Au 0 0.000 196.96654
1554 Au 0 LAT Au 0 0.000 196.96654
1555 Au 0 LAT Au 0 0.000 196.96654
1556 Au 0 LAT Au 0 0.000 196.96654
1557 Au 0 LAT Au 0 0.000 196.96654
1558 Au 0 LAT Au 0 0.000 196.96654
1559 Au 0 LAT Au 0 0.000 196.96654
1560 Au 0 LAT Au 0 0.000 196.96654
1561 Au 0 LAT Au 0 0.000 196.96654
1562 Au 0 LAT Au 0 0.000 196.96654
1563 Au 0 LAT Au 0 0.000 196.96654
1564 Au 0 LAT Au 0 0.000 196.96654
1565 Au 0 LAT Au 0 0.000 196.96654
1566 Au 0 LAT Au 0 0.000 196.96654
1567 Au 0 LAT Au 0 0.000 196.96654
1568 Au 0 LAT Au 0 0.000 196.96654
1569 Au 0 LAT Au 0 0.000 196.96654
1570 Au 0 LAT Au 0 0.000 196.96654
1571 Au 0 LAT Au 0 0.000 196.96654
1572 Au 0 LAT Au 0 0.000 196.96654
1573 Au 0 LAT Au 0 0.000 196.96654
1574 Au 0 LAT Au 0 0.000 196.96654
1575 Au 0 LAT Au 0 0.000 196.96654
1576 Au 0 LAT Au 0 0.000 196.96654
1577 Au 0 LAT Au 0 0.000 196.96654
1578 Au 0 LAT Au 0 0.000 196.96654
1579 Au 0 LAT Au 0 0.000 196.96654
1580 Au 0 LAT Au 0 0.000 196.96654
1581 Au 0 LAT Au 0 0.000 196.96654
1582 Au 0 LAT Au 0 0.000 196.96654
1583 Au 0 LAT Au 0 0.000 196.96654
1584 Au 0 LAT Au 0 0.000 196.96654
1585 Au 0 LAT Au 0 0.000 196.96654
1586 Au 0 LAT Au 0 0.000 196.96654
1587 Au 0 LAT Au 0 0.000 196.96654
1588 Au 0 LAT Au 0 0.000 196.96654
1589 Au 0 LAT Au 0 0.000 196.96654
1590 Au 0 LAT Au 0 0.000 196.96654
1591 Au 0 LAT Au 0 0.000 196.96654
1592 Au 0 LAT Au 0 0.000 196.96654
1593 Au 0 LAT Au 0 0.000 196.96654
1594 Au 0 LAT Au 0 0.000 196.96654
1595 Au 0 LAT Au 0 0.000 196.96654
1596 Au 0 LAT Au 0 0.000 196.96654
1597 Au 0 LAT Au 0 0.000 196.96654
1598 Au 0 LAT Au 0 0.000 196.96654
1599 Au 0 LAT Au 0 0.000 196.96654
1600 Au 0 LAT Au 0 0.000 196.96654
1601 Au 0 LAT Au 0 0.000 196.96654
1602 Au 0 LAT Au 0 0.000 196.96654
1603 Au 0 LAT Au 0 0.000 196.96654
1604 Au 0 LAT Au 0 0.000 196.96654
1605 Au 0 LAT Au 0 0.000 196.96654
1606 Au 0 LAT Au 0 0.000 196.96654
1607 Au 0 LAT Au 0 0.000 196.96654
1608 Au 0 LAT Au 0 0.000 196.96654
1609 Au 0 LAT Au 0 0.000 196.96654
1610 Au 0 LAT Au 0 0.000 196.96654
1611 Au 0 LAT Au 0 0.000 196.96654
1612 Au 0 LAT Au 0 0.000 196.96654
1613 Au 0 LAT Au 0 0.000 196.96654
1614 Au 0 LAT Au 0 0.000 196.96654
1615 Au 0 LAT Au 0 0.000 196.96654
1616 Au 0 LAT Au 0 0.000 196.96654
1617 Au 0 LAT Au 0 0.000 196.96654
1618 Au 0 LAT Au 0 0.000 196.96654
1619 Au 0 LAT Au 0 0.000 196.96654
1620 Au 0 LAT Au 0 0.000 196.96654
1621 Au 0 LAT Au 0 0.000 196.96654
1622 Au 0 LAT Au 0 0.000 196.96654
1623 Au 0 LAT Au 0 0.000 196.96654
1624 Au 0 LAT Au 0 0.000 196.96654
1625 Au 0 LAT Au 0 0.000 196.96654
1626 Au 0 LAT Au 0 0.000 196.96654
1627 Au 0 LAT Au 0 0.000 196.96654
1628 Au 0 LAT Au 0 0.000 196.96654
1629 Au 0 LAT Au 0 0.000 196.96654
1630 Au 0 LAT Au 0 0.000 196.96654
1631 Au 0 LAT Au 0 0.000 196.96654
1632 Au 0 LAT Au 0 0.000 196.96654
1633 Au 0 LAT Au 0 0.000 196.96654
1634 Au 0 LAT Au 0 0.000 196.96654
1635 Au 0 LAT Au 0 0.000 196.96654
1636 Au 0 LAT Au 0 0.000 196.96654
1637 Au 0 LAT Au 0 0.000 196.96654
1638 Au 0 LAT Au 0 0.000 196.96654
1639 Au 0 LAT Au 0 0.000 196.96654
1640 Au 0 LAT Au 0 0.000 196.96654
1641 Au 0 LAT Au 0 0.000 196.96654
1642 Au 0 LAT Au 0 0.000 196.96654
1643 Au 0 LAT Au 0 0.000 196.96654
1644 Au 0 LAT Au 0 0.000 196.96654
1645 Au 0 LAT Au 0 0.000 196.96654
1646 Au 0 LAT Au 0 0.000 196.96654
1647 Au 0 LAT Au 0 0.000 196.96654
1648 Au 0 LAT Au 0 0.000 196.96654
1649 Au 0 LAT Au 0 0.000 196.96654
1650 Au 0 LAT Au 0 0.000 196.96654
1651 Au 0 LAT Au 0 0.000 196.96654
1652 Au 0 LAT Au 0 0.000 196.96654
1653 Au 0 LAT Au 0 0.000 196.96654
1654 Au 0 LAT Au 0 0.000 196.96654
1655 Au 0 LAT Au 0 0.000 196.96654
1656 Au 0 LAT Au 0 0.000 196.96654
1657 Au 0 LAT Au 0 0.000 196.96654
1658 Au 0 LAT Au 0 0.000 196.96654
1659 Au 0 LAT Au 0 0.000 196.96654
1660 Au 0 LAT Au 0 0.000 196.96654
1661 Au 0 LAT Au 0 0.000 196.96654
1662 Au 0 LAT Au 0 0.000 196.96654
1663 Au 0 LAT Au 0 0.000 196.96654
1664 Au 0 LAT Au 0 0.000 196.96654
1665 Au 0 LAT Au 0 0.000 196.96654
1666 Au 0 LAT Au 0 0.000 196.96654
1667 Au 0 LAT Au 0 0.000 196.96654
1668 Au 0 LAT Au 0 0.000 196.96654
1669 Au 0 LAT Au 0 0.000 196.96654
1670 Au 0 LAT Au 0 0.000 196.96654
1671 Au 0 LAT Au 0 0.000 196.96654
1672 Au 0 LAT Au 0 0.000 196.96654
1673 Au 0 LAT Au 0 0.000 196.96654
1674 Au 0 LAT Au 0 0.000 196.96654
1675 Au 0 LAT Au 0 0.000 196.96654
1676 Au 0 LAT Au 0 0.000 196.96654
1677 Au 0 LAT Au 0 0.000 196.96654
1678 Au 0 LAT Au 0 0.000 196.96654
1679 Au 0 LAT Au 0 0.000 196.96654
1680 Au 0 LAT Au 0 0.000 196.96654
1681 Au 0 LAT Au 0 0.000 196.96654
1682 Au 0 LAT Au 0 0.000 196.96654
1683 Au 0 LAT Au 0 0.000 196.96654
1684 Au 0 LAT Au 0 0.000 196.96654
1685 Au 0 LAT Au 0 0.000 196.96654
1686 Au 0 LAT Au 0 0.000 196.96654
1687 Au 0 LAT Au 0 0.000 196.96654
1688 Au 0 LAT Au 0 0.000 196.96654
1689 Au 0 LAT Au 0 0.000 196.96654
1690 Au 0 LAT Au 0 0.000 196.96654
1691 Au 0 LAT Au 0 0.000 196.96654
1692 Au 0 LAT Au 0 0.000 196.96654
1693 Au 0 LAT Au 0 0.000 196.96654
1694 Au 0 LAT Au 0 0.000 196.96654
1695 Au 0 LAT Au 0 0.000 196.96654
1696 Au 0 LAT Au 0 0.000 196.96654
1697 Au 0 LAT Au 0 0.000 196.96654
1698 Au 0 LAT Au 0 0.000 196.96654
1699 Au 0 LAT Au 0 0.000 196.96654
1700 Au 0 LAT Au 0 0.000 196.96654
1701 Au 0 LAT Au 0 0.000 196.96654
1702 Au 0 LAT Au 0 0.000 196.96654
1703 Au 0 LAT Au 0 0.000 196.96654
1704 Au 0 LAT Au 0 0.000 196.96654
1705 Au 0 LAT Au 0 0.000 196.96654
1706 Au 0 LAT Au 0 0.000 196.96654
1707 Au 0 LAT Au 0 0.000 196.96654
1708 Au 0 LAT Au 0 0.000 196.96654
1709 Au 0 LAT Au 0 0.000 196.96654
1710 Au 0 LAT Au 0 0.000 196.96654
1711 Au 0 LAT Au 0 0.000 196.96654
1712 Au 0 LAT Au 0 0.000 196.96654
1713 Au 0 LAT Au 0 0.000 196.96654
1714 Au 0 LAT Au 0 0.000 196.96654
1715 Au 0 LAT Au 0 0.000 196.96654
1716 Au 0 LAT Au 0 0.000 196.96654
1717 Au 0 LAT Au 0 0.000 196.96654
1718 Au 0 LAT Au 0 0.000 196.96654
1719 Au 0 LAT Au 0 0.000 196.96654
1720 Au 0 LAT Au 0 0.000 196.96654
1721 Au 0 LAT Au 0 0.000 196.96654
1722 Au 0 LAT Au 0 0.000 196.96654
1723 Au 0 LAT Au 0 0.000 196.96654
1724 Au 0 LAT Au 0 0.000 196.96654
1725 Au 0 LAT Au 0 0.000 196.96654
1726 Au 0 LAT Au 0 0.000 196.96654
1727 Au 0 LAT Au 0 0.000 196.96654
1728 Au 0 LAT Au 0 0.000 196.96654
1729 Au 0 LAT Au 0 0.000 196.96654
1730 Au 0 LAT Au 0 0.000 196.96654
1731 Au 0 LAT Au 0 0.000 196.96654
1732 Au 0 LAT Au 0 0.000 196.96654
1733 Au 0 LAT Au 0 0.000 196.96654
1734 Au 0 LAT Au 0 0.000 196.96654
1735 Au 0 LAT Au 0 0.000 196.96654
1736 Au 0 LAT Au 0 0.000 196.96654
1737 Au 0 LAT Au 0 0.000 196.96654
1738 Au 0 LAT Au 0 0.000 196.96654
1739 Au 0 LAT Au 0 0.000 196.96654
1740 Au 0 LAT Au 0 0.000 196.96654
1741 Au 0 LAT Au 0 0.000 196.96654
1742 Au 0 LAT Au 0 0.000 196.96654
1743 Au 0 LAT Au 0 0.000 196.96654
1744 Au 0 LAT Au 0 0.000 196.96654
1745 Au 0 LAT Au 0 0.000 196.96654
1746 Au 0 LAT Au 0 0.000 196.96654
1747 Au 0 LAT Au 0 0.000 196.96654
1748 Au 0 LAT Au 0 0.000 196.96654
1749 Au 0 LAT Au 0 0.000 196.96654
1750 Au 0 LAT Au 0 0.000 196.96654
1751 Au 0 LAT Au 0 0.000 196.96654
1752 Au 0 LAT Au 0 0.000 196.96654
1753 Au 0 LAT Au 0 0.000 196.96654
1754 Au 0 LAT Au 0 0.000 196.96654
1755 Au 0 LAT Au 0 0.000 196.96654
1756 Au 0 LAT Au 0 0.000 196.96654
1757 Au 0 LAT Au 0 0.000 196.96654
1758 Au 0 LAT Au 0 0.000 196.96654
1759 Au 0 LAT Au 0 0.000 196.96654
1760 Au 0 LAT Au 0 0.000 196.96654
1761 Au 0 LAT Au 0 0.000 196.96654
1762 Au 0 LAT Au 0 0.000 196.96654
1763 Au 0 LAT Au 0 0.000 196.96654
1764 Au 0 LAT Au 0 0.000 196.96654
1765 Au 0 LAT Au 0 0.000 196.96654
1766 Au 0 LAT Au 0 0.000 196.96654
1767 Au 0 LAT Au 0 0.000 196.96654
1768 Au 0 LAT Au 0 0.000 196.96654
1769 Au 0 LAT Au 0 0.000 196.96654
1770 Au 0 LAT Au 0 0.000 196.96654
1771 Au 0 LAT Au 0 0.000 196.96654
1772 Au 0 LAT Au 0 0.000 196.96654
1773 Au 0 LAT Au 0 0.000 196.96654
1774 Au 0 LAT Au 0 0.000 196.96654
1775 Au 0 LAT Au 0 0.000 196.96654
1776 Au 0 LAT Au 0 0.000 196.96654
1777 Au 0 LAT Au 0 0.000 196.96654
1778 Au 0 LAT Au 0 0.000 196.96654
1779 Au 0 LAT Au 0 0.000 196.96654
1780 Au 0 LAT Au 0 0.000 196.96654
1781 Au 0 LAT Au 0 0.000 196.96654
1782 Au 0 LAT Au 0 0.000 196.96654
1783 Au 0 LAT Au 0 0.000 196.96654
1784 Au 0 LAT Au 0 0.000 196.96654
1785 Au 0 LAT Au 0 0.000 196.96654
1786 Au 0 LAT Au 0 0.000 196.96654
1787 Au 0 LAT Au 0 0.000 196.96654
1788 Au 0 LAT Au 0 0.000 196.96654
1789 Au 0 LAT Au 0 0.000 196.96654
1790 Au 0 LAT Au 0 0.000 196.96654
1791 Au 0 LAT Au 0 0.000 196.96654
1792 Au 0 LAT Au 0 0.000 196.96654
1793 Au 0 LAT Au 0 0.000 196.96654
1794 Au 0 LAT Au 0 0.000 196.96654
1795 Au 0 LAT Au 0 0.000 196.96654
1796 Au 0 LAT Au 0 0.000 196.96654
1797 Au 0 LAT Au 0 0.000 196.96654
1798 Au 0 LAT Au 0 0.000 196.96654
1799 Au 0 LAT Au 0 0.000 196.96654
1800 Au 0 LAT Au 0 0.000 196.96654
1801 Au 0 LAT Au 0 0.000 196.96654
1802 Au 0 LAT Au 0 0.000 196.96654
1803 Au 0 LAT Au 0 0.000 196.96654
1804 Au 0 LAT Au 0 0.000 196.96654
1805 Au 0 LAT Au 0 0.000 196.96654
1806 Au 0 LAT Au 0 0.000 196.96654
1807 Au 0 LAT Au 0 0.000 196.96654
1808 Au 0 LAT Au 0 0.000 196.96654
1809 Au 0 LAT Au 0 0.000 196.96654
1810 Au 0 LAT Au 0 0.000 196.96654
1811 Au 0 LAT Au 0 0.000 196.96654
1812 Au 0 LAT Au 0 0.000 196.96654
1813 Au 0 LAT Au 0 0.000 196.96654
1814 Au 0 LAT Au 0 0.000 196.96654
1815 Au 0 LAT Au 0 0.000 196.96654
1816 Au 0 LAT Au 0 0.000 196.96654
1817 Au 0 LAT Au 0 0.000 196.96654
1818 Au 0 LAT Au 0 0.000 196.96654
1819 Au 0 LAT Au 0 0.000 196.96654
1820 Au 0 LAT Au 0 0.000 196.96654
1821 Au 0 LAT Au 0 0.000 196.96654
1822 Au 0 LAT Au 0 0.000 196.96654
1823 Au 0 LAT Au 0 0.000 196.96654
1824 Au 0 LAT Au 0 0.000 196.96654
1825 Au 0 LAT Au 0 0.000 196.96654
1826 Au 0 LAT Au 0 0.000 196.96654
1827 Au 0 LAT Au 0 0.000 196.96654
1828 Au 0 LAT Au 0 0.000 196.96654
1829 Au 0 LAT Au 0 0.000 196.96654
1830 Au 0 LAT Au 0 0.000 196.96654
1831 Au 0 LAT Au 0 0.000 196.96654
1832 Au 0 LAT Au 0 0.000 196.96654
1833 Au 0 LAT Au 0 0.000 196.96654
1834 Au 0 LAT Au 0 0.000 196.96654
1835 Au 0 LAT Au 0 0.000 196.96654
1836 Au 0 LAT Au 0 0.000 196.96654
1837 Au 0 LAT Au 0 0.000 196.96654
1838 Au 0 LAT Au 0 0.000 196.96654
1839 Au 0 LAT Au 0 0.000 196.96654
1840 Au 0 LAT Au 0 0.000 196.96654
1841 Au 0 LAT Au 0 0.000 196.96654
1842 Au 0 LAT Au 0 0.000 196.96654
1843 Au 0 LAT Au 0 0.000 196.96654
1844 Au 0 LAT Au 0 0.000 196.96654
1845 Au 0 LAT Au 0 0.000 196.96654
1846 Au 0 LAT Au 0 0.000 196.96654
1847 Au 0 LAT Au 0 0.000 196.96654
1848 Au 0 LAT Au 0 0.000 196.96654
1849 Au 0 LAT Au 0 0.000 196.96654
1850 Au 0 LAT Au 0 0.000 196.96654
1851 Au 0 LAT Au 0 0.000 196.96654
1852 Au 0 LAT Au 0 0.000 196.96654
1853 Au 0 LAT Au 0 0.000 196.96654
1854 Au 0 LAT Au 0 0.000 196.96654
1855 Au 0 LAT Au 0 0.000 196.96654
1856 Au 0 LAT Au 0 0.000 196.96654
1857 Au 0 LAT Au 0 0.000 196.96654
1858 Au 0 LAT Au 0 0.000 196.96654
1859 Au 0 LAT Au 0 0.000 196.96654
1860 Au 0 LAT Au 0 0.000 196.96654
1861 Au 0 LAT Au 0 0.000 196.96654
1862 Au 0 LAT Au 0 0.000 196.96654
1863 Au 0 LAT Au 0 0.000 196.96654
1864 Au 0 LAT Au 0 0.000 196.96654
1865 Au 0 LAT Au 0 0.000 196.96654
1866 Au 0 LAT Au 0 0.000 196.96654
1867 Au 0 LAT Au 0 0.000 196.96654
1868 Au 0 LAT Au 0 0.000 196.96654
1869 Au 0 LAT Au 0 0.000 196.96654
1870 Au 0 LAT Au 0 0.000 196.96654
1871 Au 0 LAT Au 0 0.000 196.96654
1872 Au 0 LAT Au 0 0.000 196.96654
1873 Au 0 LAT Au 0 0.000 196.96654
1874 Au 0 LAT Au 0 0.000 196.96654
1875 Au 0 LAT Au 0 0.000 196.96654
1876 Au 0 LAT Au 0 0.000 196.96654
1877 Au 0 LAT Au 0 0.000 196.96654
1878 Au 0 LAT Au 0 0.000 196.96654
1879 Au 0 LAT Au 0 0.000 196.96654
1880 Au 0 LAT Au 0 0.000 196.96654
1881 Au 0 LAT Au 0 0.000 196.96654
1882 Au 0 LAT Au 0 0.000 196.96654
1883 Au 0 LAT Au 0 0.000 196.96654
1884 Au 0 LAT Au 0 0.000 196.96654
1885 Au 0 LAT Au 0 0.000 196.96654
1886 Au 0 LAT Au 0 0.000 196.96654
1887 Au 0 LAT Au 0 0.000 196.96654
1888 Au 0 LAT Au 0 0.000 196.96654
1889 Au 0 LAT Au 0 0.000 196.96654
1890 Au 0 LAT Au 0 0.000 196.96654
1891 Au 0 LAT Au 0 0.000 196.96654
1892 Au 0 LAT Au 0 0.000 196.96654
1893 Au 0 LAT Au 0 0.000 196.96654
1894 Au 0 LAT Au 0 0.000 196.96654
1895 Au 0 LAT Au 0 0.000 196.96654
1896 Au 0 LAT Au 0 0.000 196.96654
1897 Au 0 LAT Au 0 0.000 196.96654
1898 Au 0 LAT Au 0 0.000 196.96654
1899 Au 0 LAT Au 0 0.000 196.96654
1900 Au 0 LAT Au 0 0.000 196.96654
1901 Au 0 LAT Au 0 0.000 196.96654
1902 Au 0 LAT Au 0 0.000 196.96654
1903 Au 0 LAT Au 0 0.000 196.96654
1904 Au 0 LAT Au 0 0.000 196.96654
1905 Au 0 LAT Au 0 0.000 196.96654
1906 Au 0 LAT Au 0 0.000 196.96654
1907 Au 0 LAT Au 0 0.000 196.96654
1908 Au 0 LAT Au 0 0.000 196.96654
1909 Au 0 LAT Au 0 0.000 196.96654
1910 Au 0 LAT Au 0 0.000 196.96654
1911 Au 0 LAT Au 0 0.000 196.96654
1912 Au 0 LAT Au 0 0.000 196.96654
1913 Au 0 LAT Au 0 0.000 196.96654
1914 Au 0 LAT Au 0 0.000 196.96654
1915 Au 0 LAT Au 0 0.000 196.96654
1916 Au 0 LAT Au 0 0.000 196.96654
1917 Au 0 LAT Au 0 0.000 196.96654
1918 Au 0 LAT Au 0 0.000 196.96654
1919 Au 0 LAT Au 0 0.000 196.96654
1920 Au 0 LAT Au 0 0.000 196.96654
1921 Au 0 LAT Au 0 0.000 196.96654
1922 Au 0 LAT Au 0 0.000 196.96654
1923 Au 0 LAT Au 0 0.000 196.96654
1924 Au 0 LAT Au 0 0.000 196.96654
1925 Au 0 LAT Au 0 0.000 196.96654
1926 Au 0 LAT Au 0 0.000 196.96654
1927 Au 0 LAT Au 0 0.000 196.96654
1928 Au 0 LAT Au 0 0.000 196.96654
1929 Au 0 LAT Au 0 0.000 196.96654
1930 Au 0 LAT Au 0 0.000 196.96654
1931 Au 0 LAT Au 0 0.000 196.96654
1932 Au 0 LAT Au 0 0.000 196.96654
1933 Au 0 LAT Au 0 0.000 196.96654
1934 Au 0 LAT Au 0 0.000 196.96654
1935 Au 0 LAT Au 0 0.000 196.96654
1936 Au 0 LAT Au 0 0.000 196.96654
1937 Au 0 LAT Au 0 0.000 196.96654
1938 Au 0 LAT Au 0 0.000 196.96654
1939 Au 0 LAT Au 0 0.000 196.96654
1940 Au 0 LAT Au 0 0.000 196.96654
1941 Au 0 LAT Au 0 0.000 196.96654
1942 Au 0 LAT Au 0 0.000 196.96654
1943 Au 0 LAT Au 0 0.000 196.96654
1944 Au 0 LAT Au 0 0.000 196.96654
1945 Au 0 LAT Au 0 0.000 196.96654
1946 Au 0 LAT Au 0 0.000 196.96654
1947 Au 0 LAT Au 0 0.000 196.96654
1948 Au 0 LAT Au 0 0.000 196.96654
1949 Au 0 LAT Au 0 0.000 196.96654
1950 Au 0 LAT Au 0 0.000 196.96654
1951 Au 0 LAT Au 0 0.000 196.96654
1952 Au 0 LAT Au 0 0.000 196.96654
1953 Au 0 LAT Au 0 0.000 196.96654
1954 Au 0 LAT Au 0 0.000 196.96654
1955 Au 0 LAT Au 0 0.000 196.96654
1956 Au 0 LAT Au 0 0.000 196.96654
1957 Au 0 LAT Au 0 0.000 196.96654
1958 Au 0 LAT Au 0 0.000 196.96654
1959 Au 0 LAT Au 0 0.000 196.96654
1960 Au 0 LAT Au 0 0.000 196.96654
1961 Au 0 LAT Au 0 0.000 196.96654
1962 Au 0 LAT Au 0 0.000 196.96654
1963 Au 0 LAT Au 0 0.000 196.96654
1964 Au 0 LAT Au 0 0.000 196.96654
1965 Au 0 LAT Au 0 0.000 196.96654
1966 Au 0 LAT Au 0 0.000 196.96654
1967 Au 0 LAT Au 0 0.000 196.96654
1968 Au 0 LAT Au 0 0.000 196.96654
1969 Au 0 LAT Au 0 0.000 196.96654
1970 Au 0 LAT Au 0 0.000 196.96654
1971 Au 0 LAT Au 0 0.000 196.96654
1972 Au 0 LAT Au 0 0.000 196.96654
1973 Au 0 LAT Au 0 0.000 196.96654
1974 Au 0 LAT Au 0 0.000 196.96654
1975 Au 0 LAT Au 0 0.000 196.96654
1976 Au 0 LAT Au 0 0.000 196.96654
1977 Au 0 LAT Au 0 0.000 196.96654
1978 Au 0 LAT Au 0 0.000 196.96654
1979 Au 0 LAT Au 0 0.000 196.96654
1980 Au 0 LAT Au 0 0.000 196.96654
1981 Au 0 LAT Au 0 0.000 196.96654
1982 Au 0 LAT Au 0 0.000 196.96654
1983 Au 0 LAT Au 0 0.000 196.96654
1984 Au 0 LAT Au 0 0.000 196.96654
1985 Au 0 LAT Au 0 0.000 196.96654
1986 Au 0 LAT Au 0 0.000 196.96654
1987 Au 0 LAT Au 0 0.000 196.96654
1988 Au 0 LAT Au 0 0.000 196.96654
1989 Au 0 LAT Au 0 0.000 196.96654
1990 Au 0 LAT Au 0 0.000 196.96654
1991 Au 0 LAT Au 0 0.000 196.96654
1992 Au 0 LAT Au 0 0.000 196.96654
1993 Au 0 LAT Au 0 0.000 196.96654
1994 Au 0 LAT Au 0 0.000 196.96654
1995 Au 0 LAT Au 0 0.000 196.96654
1996 Au 0 LAT Au 0 0.000 196.96654
1997 Au 0 LAT Au 0 0.000 196.96654
1998 Au 0 LAT Au 0 0.000 196.96654
1999 Au 0 LAT Au 0 0.000 196.96654
2000 Au 0 LAT Au 0 0.000 196.96654
2001 Au 0 LAT Au 0 0.000 196.96654
2002 Au 0 LAT Au 0 0.000 196.96654
2003 Au 0 LAT Au 0 0.000 196.96654
2004 Au 0 LAT Au 0 0.000 196.96654
2005 Au 0 LAT Au 0 0.000 196.96654
2006 Au 0 LAT Au 0 0.000 196.96654
2007 Au 0 LAT Au 0 0.000 196.96654
2008 Au 0 LAT Au 0 0.000 196.96654
2009 Au 0 LAT Au 0 0.000 196.96654
2010 Au 0 LAT Au 0 0.000 196.96654
2011 Au 0 LAT Au 0 0.000 196.96654
2012 Au 0 LAT Au 0 0.000 196.96654
2013 Au 0 LAT Au 0 0.000 196.96654
2014 Au 0 LAT Au 0 0.000 196.96654
2015 Au 0 LAT Au 0 0.000 196.96654
2016 Au 0 LAT Au 0 0.000 196.96654
2017 Au 0 LAT Au 0 0.000 196.96654
2018 Au 0 LAT Au 0 0.000 196.96654
2019 Au 0 LAT Au 0 0.000 196.96654
2020 Au 0 LAT Au 0 0.000 196.96654
2021 Au 0 LAT Au 0 0.000 196.96654
2022 Au 0 LAT Au 0 0.000 196.96654
2023 Au 0 LAT Au 0 0.000 196.96654
2024 Au 0 LAT Au 0 0.000 196.96654
2025 Au 0 LAT Au 0 0.000 196.96654
2026 Au 0 LAT Au 0 0.000 196.96654
2027 Au 0 LAT Au 0 0.000 196.96654
2028 Au 0 LAT Au 0 0.000 196.96654
2029 Au 0 LAT Au 0 0.000 196.96654
2030 Au 0 LAT Au 0 0.000 196.96654
2031 Au 0 LAT Au 0 0.000 196.96654
2032 Au 0 LAT Au 0 0.000 196.96654
2033 Au 0 LAT Au 0 0.000 196.96654
2034 Au 0 LAT Au 0 0.000 196.96654
2035 Au 0 LAT Au 0 0.000 196.96654
2036 Au 0 LAT Au 0 0.000 196.96654
2037 Au 0 LAT Au 0 0.000 196.96654
2038 Au 0 LAT Au 0 0.000 196.96654
2039 Au 0 LAT Au 0 0.000 196.96654
2040 Au 0 LAT Au 0 0.000 196.96654
2041 Au 0 LAT Au 0 0.000 196.96654
2042 Au 0 LAT Au 0 0.000 196.96654
2043 Au 0 LAT Au 0 0.000 196.96654
2044 Au 0 LAT Au 0 0.000 196.96654
2045 Au 0 LAT Au 0 0.000 196.96654
2046 Au 0 LAT Au 0 0.000 196.96654
2047 Au 0 LAT Au 0 0.000 196.96654
2048 Au 0 LAT Au 0 0.000 196.96654
2049 Au 0 LAT Au 0 0.000 196.96654
2050 Au 0 LAT Au 0 0.000 196.96654
2051 Au 0 LAT Au 0 0.000 196.96654
2052 Au 0 LAT Au 0 0.000 196.96654
2053 Au 0 LAT Au 0 0.000 196.96654
2054 Au 0 LAT Au 0 0.000 196.96654
2055 Au 0 LAT Au 0 0.000 196.96654
2056 Au 0 LAT Au 0 0.000 196.96654
2057 Au 0 LAT Au 0 0.000 196.96654
2058 Au 0 LAT Au 0 0.000 196.96654
2059 Au 0 LAT Au 0 0.000 196.96654
2060 Au 0 LAT Au 0 0.000 196.96654
2061 Au 0 LAT Au 0 0.000 196.96654
2062 Au 0 LAT Au 0 0.000 196.96654
2063 Au 0 LAT Au 0 0.000 196.96654
2064 Au 0 LAT Au 0 0.000 196.96654
2065 Au 0 LAT Au 0 0.000 196.96654
2066 Au 0 LAT Au 0 0.000 196.96654
2067 Au 0 LAT Au 0 0.000 196.96654
2068 Au 0 LAT Au 0 0.000 196.96654
2069 Au 0 LAT Au 0 0.000 196.96654
2070 Au 0 LAT Au 0 0.000 196.96654
2071 Au 0 LAT Au 0 0.000 196.96654
2072 Au 0 LAT Au 0 0.000 196.96654
2073 Au 0 LAT Au 0 0.000 196.96654
2074 Au 0 LAT Au 0 0.000 196.96654
2075 Au 0 LAT Au 0 0.000 196.96654
2076 Au 0 LAT Au 0 0.000 196.96654
2077 Au 0 LAT Au 0 0.000 196.96654
2078 Au 0 LAT Au 0 0.000 196.96654
2079 Au 0 LAT Au 0 0.000 196.96654
2080 Au 0 LAT Au 0 0.000 196.96654
2081 Au 0 LAT Au 0 0.000 196.96654
2082 Au 0 LAT Au 0 0.000 196.96654
2083 Au 0 LAT Au 0 0.000 196.96654
2084 Au 0 LAT Au 0 0.000 196.96654
2085 Au 0 LAT Au 0 0.000 196.96654
2086 Au 0 LAT Au 0 0.000 196.96654
2087 Au 0 LAT Au 0 0.000 196.96654
2088 Au 0 LAT Au 0 0.000 196.96654
2089 Au 0 LAT Au 0 0.000 196.96654
2090 Au 0 LAT Au 0 0.000 196.96654
2091 Au 0 LAT Au 0 0.000 196.96654
2092 Au 0 LAT Au 0 0.000 196.96654
2093 Au 0 LAT Au 0 0.000 196.96654
2094 Au 0 LAT Au 0 0.000 196.96654
2095 Au 0 LAT Au 0 0.000 196.96654
2096 Au 0 LAT Au 0 0.000 196.96654
2097 Au 0 LAT Au 0 0.000 196.96654
2098 Au 0 LAT Au 0 0.000 196.96654
2099 Au 0 LAT Au 0 0.000 196.96654
2100 Au 0 LAT Au 0 0.000 196.96654
2101 Au 0 LAT Au 0 0.000 196.96654
2102 Au 0 LAT Au 0 0.000 196.96654
2103 Au 0 LAT Au 0 0.000 196.96654
2104 Au 0 LAT Au 0 0.000 196.96654
2105 Au 0 LAT Au 0 0.000 196.96654
2106 Au 0 LAT Au 0 0.000 196.96654
2107 Au 0 LAT Au 0 0.000 196.96654
2108 Au 0 LAT Au 0 0.000 196.96654
2109 Au 0 LAT Au 0 0.000 196.96654
2110 Au 0 LAT Au 0 0.000 196.96654
2111 Au 0 LAT Au 0 0.000 196.96654
2112 Au 0 LAT Au 0 0.000 196.96654
2113 Au 0 LAT Au 0 0.000 196.96654
2114 Au 0 LAT Au 0 0.000 196.96654
2115 Au 0 LAT Au 0 0.000 196.96654
2116 Au 0 LAT Au 0 0.000 196.96654
2117 Au 0 LAT Au 0 0.000 196.96654
2118 Au 0 LAT Au 0 0.000 196.96654
2119 Au 0 LAT Au 0 0.000 196.96654
2120 Au 0 LAT Au 0 0.000 196.96654
2121 Au 0 LAT Au 0 0.000 196.96654
2122 Au 0 LAT Au 0 0.000 196.96654
2123 Au 0 LAT Au 0 0.000 196.96654
2124 Au 0 LAT Au 0 0.000 196.96654
2125 Au 0 LAT Au 0 0.000 196.96654
2126 Au 0 LAT Au 0 0.000 196.96654
2127 Au 0 LAT Au 0 0.000 196.96654
2128 Au 0 LAT Au 0 0.000 196.96654
2129 Au 0 LAT Au 0 0.000 196.96654
2130 Au 0 LAT Au 0 0.000 196.96654
2131 Au 0 LAT Au 0 0.000 196.96654
2132 Au 0 LAT Au 0 0.000 196.96654
2133 Au 0 LAT Au 0 0.000 196.96654
2134 Au 0 LAT Au 0 0.000 196.96654
2135 Au 0 LAT Au 0 0.000 196.96654
2136 Au 0 LAT Au 0 0.000 196.96654
2137 Au 0 LAT Au 0 0.000 196.96654
2138 Au 0 LAT Au 0 0.000 196.96654
2139 Au 0 LAT Au 0 0.000 196.96654
2140 Au 0 LAT Au 0 0.000 196.96654
2141 Au 0 LAT Au 0 0.000 196.96654
2142 Au 0 LAT Au 0 0.000 196.96654
2143 Au 0 LAT Au 0 0.000 196.96654
2144 Au 0 LAT Au 0 0.000 196.96654
2145 Au 0 LAT Au 0 0.000 196.96654
2146 Au 0 LAT Au 0 0.000 196.96654
2147 Au 0 LAT Au 0 0.000 196.96654
2148 Au 0 LAT Au 0 0.000 196.96654
2149 Au 0 LAT Au 0 0.000 196.96654
2150 Au 0 LAT Au 0 0.000 196.96654
2151 Au 0 LAT Au 0 0.000 196.96654
2152 Au 0 LAT Au 0 0.000 196.96654
2153 Au 0 LAT Au 0 0.000 196.96654
2154 Au 0 LAT Au 0 0.000 196.96654
2155 Au 0 LAT Au 0 0.000 196.96654
2156 Au 0 LAT Au 0 0.000 196.96654
2157 Au 0 LAT Au 0 0.000 196.96654
2158 Au 0 LAT Au 0 0.000 196.96654
2159 Au 0 LAT Au 0 0.000 196.96654
2160 Au 0 LAT Au 0 0.000 196.96654
2161 Au 0 LAT Au 0 0.000 196.96654
2162 Au 0 LAT Au 0 0.000 196.96654
2163 Au 0 LAT Au 0 0.000 196.96654
2164 Au 0 LAT Au 0 0.000 196.96654
2165 Au 0 LAT Au 0 0.000 196.96654
2166 Au 0 LAT Au 0 0.000 196.96654
2167 Au 0 LAT Au 0 0.000 196.96654
2168 Au 0 LAT Au 0 0.000 196.96654
2169 Au 0 LAT Au 0 0.000 196.96654
2170 Au 0 LAT Au 0 0.000 196.96654
2171 Au 0 LAT Au 0 0.000 196.96654
2172 Au 0 LAT Au 0 0.000 196.96654
2173 Au 0 LAT Au 0 0.000 196.96654
2174 Au 0 LAT Au 0 0.000 196.96654
2175 Au 0 LAT Au 0 0.000 196.96654
2176 Au 0 LAT Au 0 0.000 196.96654
2177 Au 0 LAT Au 0 0.000 196.96654
2178 Au 0 LAT Au 0 0.000 196.96654
2179 Au 0 LAT Au 0 0.000 196.96654
2180 Au 0 LAT Au 0 0.000 196.96654
2181 Au 0 LAT Au 0 0.000 196.96654
2182 Au 0 LAT Au 0 0.000 196.96654
2183 Au 0 LAT Au 0 0.000 196.96654
2184 Au 0 LAT Au 0 0.000 196.96654
2185 Au 0 LAT Au 0 0.000 196.96654
2186 Au 0 LAT Au 0 0.000 196.96654
2187 Au 0 LAT Au 0 0.000 196.96654
2188 Au 0 LAT Au 0 0.000 196.96654
2189 Au 0 LAT Au 0 0.000 196.96654
2190 Au 0 LAT Au 0 0.000 196.96654
2191 Au 0 LAT Au 0 0.000 196.96654
2192 Au 0 LAT Au 0 0.000 196.96654
2193 Au 0 LAT Au 0 0.000 196.96654
2194 Au 0 LAT Au 0 0.000 196.96654
2195 Au 0 LAT Au 0 0.000 196.96654
2196 Au 0 LAT Au 0 0.000 196.96654
2197 Au 0 LAT Au 0 0.000 196.96654
2198 Au 0 LAT Au 0 0.000 196.96654
2199 Au 0 LAT Au 0 0.000 196.96654
2200 Au 0 LAT Au 0 0.000 196.96654
2201 Au 0 LAT Au 0 0.000 196.96654
2202 Au 0 LAT Au 0 0.000 196.96654
2203 Au 0 LAT Au 0 0.000 196.96654
2204 Au 0 LAT Au 0 0.000 196.96654
2205 Au 0 LAT Au 0 0.000 196.96654
2206 Au 0 LAT Au 0 0.000 196.96654
2207 Au 0 LAT Au 0 0.000 196.96654
2208 Au 0 LAT Au 0 0.000 196.96654
2209 Au 0 LAT Au 0 0.000 196.96654
2210 Au 0 LAT Au 0 0.000 196.96654
2211 Au 0 LAT Au 0 0.000 196.96654
2212 Au 0 LAT Au 0 0.000 196.96654
2213 Au 0 LAT Au 0 0.000 196.96654
2214 Au 0 LAT Au 0 0.000 196.96654
2215 Au 0 LAT Au 0 0.000 196.96654
2216 Au 0 LAT Au 0 0.000 196.96654
2217 Au 0 LAT Au 0 0.000 196.96654
2218 Au 0 LAT Au 0 0.000 196.96654
2219 Au 0 LAT Au 0 0.000 196.96654
2220 Au 0 LAT Au 0 0.000 196.96654
2221 Au 0 LAT Au 0 0.000 196.96654
2222 Au 0 LAT Au 0 0.000 196.96654
2223 Au 0 LAT Au 0 0.000 196.96654
2224 Au 0 LAT Au 0 0.000 196.96654
2225 Au 0 LAT Au 0 0.000 196.96654
2226 Au 0 LAT Au 0 0.000 196.96654
2227 Au 0 LAT Au 0 0.000 196.96654
2228 Au 0 LAT Au 0 0.000 196.96654
2229 Au 0 LAT Au 0 0.000 196.96654
2230 Au 0 LAT Au 0 0.000 196.96654
2231 Au 0 LAT Au 0 0.000 196.96654
2232 Au 0 LAT Au 0 0.000 196.96654
2233 Au 0 LAT Au 0 0.000 196.96654
2234 Au 0 LAT Au 0 0.000 196.96654
2235 Au 0 LAT Au 0 0.000 196.96654
2236 Au 0 LAT Au 0 0.000 196.96654
2237 Au 0 LAT Au 0 0.000 196.96654
2238 Au 0 LAT Au 0 0.000 196.96654
2239 Au 0 LAT Au 0 0.000 196.96654
2240 Au 0 LAT Au 0 0.000 196.96654
2241 Au 0 LAT Au 0 0.000 196.96654
2242 Au 0 LAT Au 0 0.000 196.96654
2243 Au 0 LAT Au 0 0.000 196.96654
2244 Au 0 LAT Au 0 0.000 196.96654
2245 Au 0 LAT Au 0 0.000 196.96654
2246 Au 0 LAT Au 0 0.000 196.96654
2247 Au 0 LAT Au 0 0.000 196.96654
2248 Au 0 LAT Au 0 0.000 196.96654
2249 Au 0 LAT Au 0 0.000 196.96654
2250 Au 0 LAT Au 0 0.000 196.96654
2251 Au 0 LAT Au 0 0.000 196.96654
2252 Au 0 LAT Au 0 0.000 196.96654
2253 Au 0 LAT Au 0 0.000 196.96654
2254 Au 0 LAT Au 0 0.000 196.96654
2255 Au 0 LAT Au 0 0.000 196.96654
2256 Au 0 LAT Au 0 0.000 196.96654
2257 Au 0 LAT Au 0 0.000 196.96654
2258 Au 0 LAT Au 0 0.000 196.96654
2259 Au 0 LAT Au 0 0.000 196.96654
2260 Au 0 LAT Au 0 0.000 196.96654
2261 Au 0 LAT Au 0 0.000 196.96654
2262 Au 0 LAT Au 0 0.000 196.96654
2263 Au 0 LAT Au 0 0.000 196.96654
2264 Au 0 LAT Au 0 0.000 196.96654
2265 Au 0 LAT Au 0 0.000 196.96654
2266 Au 0 LAT Au 0 0.000 196.96654
2267 Au 0 LAT Au 0 0.000 196.96654
2268 Au 0 LAT Au 0 0.000 196.96654
2269 Au 0 LAT Au 0 0.000 196.96654
2270 Au 0 LAT Au 0 0.000 196.96654
2271 Au 0 LAT Au 0 0.000 196.96654
2272 Au 0 LAT Au 0 0.000 196.96654
2273 Au 0 LAT Au 0 0.000 196.96654
2274 Au 0 LAT Au 0 0.000 196.96654
2275 Au 0 LAT Au 0 0.000 196.96654
2276 Au 0 LAT Au 0 0.000 196.96654
2277 Au 0 LAT Au 0 0.000 196.96654
2278 Au 0 LAT Au 0 0.000 196.96654
2279 Au 0 LAT Au 0 0.000 196.96654
2280 Au 0 LAT Au 0 0.000 196.96654
2281 Au 0 LAT Au 0 0.000 196.96654
2282 Au 0 LAT Au 0 0.000 196.96654
2283 Au 0 LAT Au 0 0.000 196.96654
2284 Au 0 LAT Au 0 0.000 196.96654
2285 Au 0 LAT Au 0 0.000 196.96654
2286 Au 0 LAT Au 0 0.000 196.96654
2287 Au 0 LAT Au 0 0.000 196.96654
2288 Au 0 LAT Au 0 0.000 196.96654
2289 Au 0 LAT Au 0 0.000 196.96654
2290 Au 0 LAT Au 0 0.000 196.96654
2291 Au 0 LAT Au 0 0.000 196.96654
2292 Au 0 LAT Au 0 0.000 196.96654
2293 Au 0 LAT Au 0 0.000 196.96654
2294 Au 0 LAT Au 0 0.000 196.96654
2295 Au 0 LAT Au 0 0.000 196.96654
2296 Au 0 LAT Au 0 0.000 196.96654
2297 Au 0 LAT Au 0 0.000 196.96654
2298 Au 0 LAT Au 0 0.000 196.96654
2299 Au 0 LAT Au 0 0.000 196.96654
2300 Au 0 LAT Au 0 0.000 196.96654
2301 Au 0 LAT Au 0 0.000 196.96654
2302 Au 0 LAT Au 0 0.000 196.96654
2303 Au 0 LAT Au 0 0.000 196.96654
2304 Au 0 LAT Au 0 0.000 196.96654
2305 Au 0 LAT Au 0 0.000 196.96654
2306 Au 0 LAT Au 0 0.000 196.96654
2307 Au 0 LAT Au 0 0.000 196.96654
2308 Au 0 LAT Au 0 0.000 196.96654
2309 Au 0 LAT Au 0 0.000 196.96654
2310 Au 0 LAT Au 0 0.000 196.96654
2311 Au 0 LAT Au 0 0.000 196.96654
2312 Au 0 LAT Au 0 0.000 196.96654
2313 Au 0 LAT Au 0 0.000 196.96654
2314 Au 0 LAT Au 0 0.000 196.96654
2315 Au 0 LAT Au 0 0.000 196.96654
2316 Au 0 LAT Au 0 0.000 196.96654
2317 Au 0 LAT Au 0 0.000 196.96654
2318 Au 0 LAT Au 0 0.000 196.96654
2319 Au 0 LAT Au 0 0.000 196.96654
2320 Au 0 LAT Au 0 0.000 196.96654
2321 Au 0 LAT Au 0 0.000 196.96654
2322 Au 0 LAT Au 0 0.000 196.96654
2323 Au 0 LAT Au 0 0.000 196.96654
2324 Au 0 LAT Au 0 0.000 196.96654
2325 Au 0 LAT Au 0 0.000 196.96654
2326 Au 0 LAT Au 0 0.000 196.96654
2327 Au 0 LAT Au 0 0.000 196.96654
2328 Au 0 LAT Au 0 0.000 196.96654
2329 Au 0 LAT Au 0 0.000 196.96654
2330 Au 0 LAT Au 0 0.000 196.96654
2331 Au 0 LAT Au 0 0.000 196.96654
2332 Au 0 LAT Au 0 0.000 196.96654
2333 Au 0 LAT Au 0 0.000 196.96654
2334 Au 0 LAT Au 0 0.000 196.96654
2335 Au 0 LAT Au 0 0.000 196.96654
2336 Au 0 LAT Au 0 0.000 196.96654
2337 Au 0 LAT Au 0 0.000 196.96654
2338 Au 0 LAT Au 0 0.000 196.96654
2339 Au 0 LAT Au 0 0.000 196.96654
2340 Au 0 LAT Au 0 0.000 196.96654
2341 Au 0 LAT Au 0 0.000 196.96654
2342 Au 0 LAT Au 0 0.000 196.96654
2343 Au 0 LAT Au 0 0.000 196.96654
2344 Au 0 LAT Au 0 0.000 196.96654
2345 Au 0 LAT Au 0 0.000 196.96654
2346 Au 0 LAT Au 0 0.000 196.96654
2347 Au 0 LAT Au 0 0.000 196.96654
2348 Au 0 LAT Au 0 0.000 196.96654
2349 Au 0 LAT Au 0 0.000 196.96654
2350 Au 0 LAT Au 0 0.000 196.96654
2351 Au 0 LAT Au 0 0.000 196.96654
2352 Au 0 LAT Au 0 0.000 196.96654
2353 Au 0 LAT Au 0 0.000 196.96654
2354 Au 0 LAT Au 0 0.000 196.96654
2355 Au 0 LAT Au 0 0.000 196.96654
2356 Au 0 LAT Au 0 0.000 196.96654
2357 Au 0 LAT Au 0 0.000 196.96654
2358 Au 0 LAT Au 0 0.000 196.96654
2359 Au 0 LAT Au 0 0.000 196.96654
2360 Au 0 LAT Au 0 0.000 196.96654
2361 Au 0 LAT Au 0 0.000 196.96654
2362 Au 0 LAT Au 0 0.000 196.96654
2363 Au 0 LAT Au 0 0.000 196.96654
2364 Au 0 LAT Au 0 0.000 196.96654
2365 Au 0 LAT Au 0 0.000 196.96654
2366 Au 0 LAT Au 0 0.000 196.96654
2367 Au 0 LAT Au 0 0.000 196.96654
2368 Au 0 LAT Au 0 0.000 196.96654
2369 Au 0 LAT Au 0 0.000 196.96654
2370 Au 0 LAT Au 0 0.000 196.96654
2371 Au 0 LAT Au 0 0.000 196.96654
2372 Au 0 LAT Au 0 0.000 196.96654
2373 Au 0 LAT Au 0 0.000 196.96654
2374 Au 0 LAT Au 0 0.000 196.96654
2375 Au 0 LAT Au 0 0.000 196.96654
2376 Au 0 LAT Au 0 0.000 196.96654
2377 Au 0 LAT Au 0 0.000 196.96654
2378 Au 0 LAT Au 0 0.000 196.96654
2379 Au 0 LAT Au 0 0.000 196.96654
2380 Au 0 LAT Au 0 0.000 196.96654
2381 Au 0 LAT Au 0 0.000 196.96654
2382 Au 0 LAT Au 0 0.000 196.96654
2383 Au 0 LAT Au 0 0.000 196.96654
2384 Au 0 LAT Au 0 0.000 196.96654
2385 Au 0 LAT Au 0 0.000 196.96654
2386 Au 0 LAT Au 0 0.000 196.96654
2387 Au 0 LAT Au 0 0.000 196.96654
2388 Au 0 LAT Au 0 0.000 196.96654
2389 Au 0 LAT Au 0 0.000 196.96654
2390 Au 0 LAT Au 0 0.000 196.96654
2391 Au 0 LAT Au 0 0.000 196.96654
2392 Au 0 LAT Au 0 0.000 196.96654
2393 Au 0 LAT Au 0 0.000 196.96654
2394 Au 0 LAT Au 0 0.000 196.96654
2395 Au 0 LAT Au 0 0.000 196.96654
2396 Au 0 LAT Au 0 0.000 196.96654
2397 Au 0 LAT Au 0 0.000 196.96654
2398 Au 0 LAT Au 0 0.000 196.96654
2399 Au 0 LAT Au 0 0.000 196.96654
2400 Au 0 LAT Au 0 0.000 196.96654
2401 Au 0 LAT Au 0 0.000 196.96654
2402 Au 0 LAT Au 0 0.000 196.96654
2403 Au 0 LAT Au 0 0.000 196.96654
2404 Au 0 LAT Au 0 0.000 196.96654
2405 Au 0 LAT Au 0 0.000 196.96654
2406 Au 0 LAT Au 0 0.000 196.96654
2407 Au 0 LAT Au 0 0.000 196.96654
2408 Au 0 LAT Au 0 0.000 196.96654
2409 Au 0 LAT Au 0 0.000 196.96654
2410 Au 0 LAT Au 0 0.000 196.96654
2411 Au 0 LAT Au 0 0.000 196.96654
2412 Au 0 LAT Au 0 0.000 196.96654
2413 Au 0 LAT Au 0 0.000 196.96654
2414 Au 0 LAT Au 0 0.000 196.96654
2415 Au 0 LAT Au 0 0.000 196.96654
2416 Au 0 LAT Au 0 0.000 196.96654
2417 Au 0 LAT Au 0 0.000 196.96654
2418 Au 0 LAT Au 0 0.000 196.96654
2419 Au 0 LAT Au 0 0.000 196.96654
2420 Au 0 LAT Au 0 0.000 196.96654
2421 Au 0 LAT Au 0 0.000 196.96654
2422 Au 0 LAT Au 0 0.000 196.96654
2423 Au 0 LAT Au 0 0.000 196.96654
2424 Au 0 LAT Au 0 0.000 196.96654
2425 Au 0 LAT Au 0 0.000 196.96654
2426 Au 0 LAT Au 0 0.000 196.96654
2427 Au 0 LAT Au 0 0.000 196.96654
2428 Au 0 LAT Au 0 0.000 196.96654
2429 Au 0 LAT Au 0 0.000 196.96654
2430 Au 0 LAT Au 0 0.000 196.96654
2431 Au 0 LAT Au 0 0.000 196.96654
2432 Au 0 LAT Au 0 0.000 196.96654
2433 Au 0 LAT Au 0 0.000 196.96654
2434 Au 0 LAT Au 0 0.000 196.96654
2435 Au 0 LAT Au 0 0.000 196.96654
2436 Au 0 LAT Au 0 0.000 196.96654
2437 Au 0 LAT Au 0 0.000 196.96654
2438 Au 0 LAT Au 0 0.000 196.96654
2439 Au 0 LAT Au 0 0.000 196.96654
2440 Au 0 LAT Au 0 0.000 196.96654
2441 Au 0 LAT Au 0 0.000 196.96654
2442 Au 0 LAT Au 0 0.000 196.96654
2443 Au 0 LAT Au 0 0.000 196.96654
2444 Au 0 LAT Au 0 0.000 196.96654
2445 Au 0 LAT Au 0 0.000 196.96654
2446 Au 0 LAT Au 0 0.000 196.96654
2447 Au 0 LAT Au 0 0.000 196.96654
2448 Au 0 LAT Au 0 0.000 196.96654
2449 Au 0 LAT Au 0 0.000 196.96654
2450 Au 0 LAT Au 0 0.000 196.96654
2451 Au 0 LAT Au 0 0.000 196.96654
2452 Au 0 LAT Au 0 0.000 196.96654
2453 Au 0 LAT Au 0 0.000 196.96654
2454 Au 0 LAT Au 0 0.000 196.96654
2455 Au 0 LAT Au 0 0.000 196.96654
2456 Au 0 LAT Au 0 0.000 196.96654
2457 Au 0 LAT Au 0 0.000 196.96654
2458 Au 0 LAT Au 0 0.000 196.96654
2459 Au 0 LAT Au 0 0.000 196.96654
2460 Au 0 LAT Au 0 0.000 196.96654
2461 Au 0 LAT Au 0 0.000 196.96654
2462 Au 0 LAT Au 0 0.000 196.96654
2463 Au 0 LAT Au 0 0.000 196.96654
2464 Au 0 LAT Au 0 0.000 196.96654
2465 Au 0 LAT Au 0 0.000 196.96654
2466 Au 0 LAT Au 0 0.000 196.96654
2467 Au 0 LAT Au 0 0.000 196.96654
2468 Au 0 LAT Au 0 0.000 196.96654
2469 Au 0 LAT Au 0 0.000 196.96654
2470 Au 0 LAT Au 0 0.000 196.96654
2471 Au 0 LAT Au 0 0.000 196.96654
2472 Au 0 LAT Au 0 0.000 196.96654
2473 Au 0 LAT Au 0 0.000 196.96654
2474 Au 0 LAT Au 0 0.000 196.96654
2475 Au 0 LAT Au 0 0.000 196.96654
2476 Au 0 LAT Au 0 0.000 196.96654
2477 Au 0 LAT Au 0 0.000 196.96654
2478 Au 0 LAT Au 0 0.000 196.96654
2479 Au 0 LAT Au 0 0.000 196.96654
2480 Au 0 LAT Au 0 0.000 196.96654
2481 Au 0 LAT Au 0 0.000 196.96654
2482 Au 0 LAT Au 0 0.000 196.96654
2483 Au 0 LAT Au 0 0.000 196.96654
2484 Au 0 LAT Au 0 0.000 196.96654
2485 Au 0 LAT Au 0 0.000 196.96654
2486 Au 0 LAT Au 0 0.000 196.96654
2487 Au 0 LAT Au 0 0.000 196.96654
2488 Au 0 LAT Au 0 0.000 196.96654
2489 Au 0 LAT Au 0 0.000 196.96654
2490 Au 0 LAT Au 0 0.000 196.96654
2491 Au 0 LAT Au 0 0.000 196.96654
2492 Au 0 LAT Au 0 0.000 196.96654
2493 Au 0 LAT Au 0 0.000 196.96654
2494 Au 0 LAT Au 0 0.000 196.96654
2495 Au 0 LAT Au 0 0.000 196.96654
2496 Au 0 LAT Au 0 0.000 196.96654
2497 Au 0 LAT Au 0 0.000 196.96654
2498 Au 0 LAT Au 0 0.000 196.96654
2499 Au 0 LAT Au 0 0.000 196.96654
2500 Au 0 LAT Au 0 0.000 196.96654
2501 Au 0 LAT Au 0 0.000 196.96654
2502 Au 0 LAT Au 0 0.000 196.96654
2503 Au 0 LAT Au 0 0.000 196.96654
2504 Au 0 LAT Au 0 0.000 196.96654
2505 Au 0 LAT Au 0 0.000 196.96654
2506 Au 0 LAT Au 0 0.000 196.96654
2507 Au 0 LAT Au 0 0.000 196.96654
2508 Au 0 LAT Au 0 0.000 196.96654
2509 Au 0 LAT Au 0 0.000 196.96654
2510 Au 0 LAT Au 0 0.000 196.96654
2511 Au 0 LAT Au 0 0.000 196.96654
2512 Au 0 LAT Au 0 0.000 196.96654
2513 Au 0 LAT Au 0 0.000 196.96654
2514 Au 0 LAT Au 0 0.000 196.96654
2515 Au 0 LAT Au 0 0.000 196.96654
2516 Au 0 LAT Au 0 0.000 196.96654
2517 Au 0 LAT Au 0 0.000 196.96654
2518 Au 0 LAT Au 0 0.000 196.96654
2519 Au 0 LAT Au 0 0.000 196.96654
2520 Au 0 LAT Au 0 0.000 196.96654
2521 Au 0 LAT Au 0 0.000 196.96654
2522 Au 0 LAT Au 0 0.000 196.96654
2523 Au 0 LAT Au 0 0.000 196.96654
2524 Au 0 LAT Au 0 0.000 196.96654
2525 Au 0 LAT Au 0 0.000 196.96654
2526 Au 0 LAT Au 0 0.000 196.96654
2527 Au 0 LAT Au 0 0.000 196.96654
2528 Au 0 LAT Au 0 0.000 196.96654
2529 Au 0 LAT Au 0 0.000 196.96654
2530 Au 0 LAT Au 0 0.000 196.96654
2531 Au 0 LAT Au 0 0.000 196.96654
2532 Au 0 LAT Au 0 0.000 196.96654
2533 Au 0 LAT Au 0 0.000 196.96654
2534 Au 0 LAT Au 0 0.000 196.96654
2535 Au 0 LAT Au 0 0.000 196.96654
2536 Au 0 LAT Au 0 0.000 196.96654
2537 Au 0 LAT Au 0 0.000 196.96654
2538 Au 0 LAT Au 0 0.000 196.96654
2539 Au 0 LAT Au 0 0.000 196.96654
2540 Au 0 LAT Au 0 0.000 196.96654
2541 Au 0 LAT Au 0 0.000 196.96654
2542 Au 0 LAT Au 0 0.000 196.96654
2543 Au 0 LAT Au 0 0.000 196.96654
2544 Au 0 LAT Au 0 0.000 196.96654
2545 Au 0 LAT Au 0 0.000 196.96654
2546 Au 0 LAT Au 0 0.000 196.96654
2547 Au 0 LAT Au 0 0.000 196.96654
2548 Au 0 LAT Au 0 0.000 196.96654
2549 Au 0 LAT Au 0 0.000 196.96654
2550 Au 0 LAT Au 0 0.000 196.96654
2551 Au 0 LAT Au 0 0.000 196.96654
2552 Au 0 LAT Au 0 0.000 196.96654
2553 Au 0 LAT Au 0 0.000 196.96654
2554 Au 0 LAT Au 0 0.000 196.96654
2555 Au 0 LAT Au 0 0.000 196.96654
2556 Au 0 LAT Au 0 0.000 196.96654
2557 Au 0 LAT Au 0 0.000 196.96654
2558 Au 0 LAT Au 0 0.000 196.96654
2559 Au 0 LAT Au 0 0.000 196.96654
2560 Au 0 LAT Au 0 0.000 196.96654
2561 Au 0 LAT Au 0 0.000 196.96654
2562 Au 0 LAT Au 0 0.000 196.96654
2563 Au 0 LAT Au 0 0.000 196.96654
2564 Au 0 LAT Au 0 0.000 196.96654
2565 Au 0 LAT Au 0 0.000 196.96654
2566 Au 0 LAT Au 0 0.000 196.96654
2567 Au 0 LAT Au 0 0.000 196.96654
2568 Au 0 LAT Au 0 0.000 196.96654
2569 Au 0 LAT Au 0 0.000 196.96654
2570 Au 0 LAT Au 0 0.000 196.96654
2571 Au 0 LAT Au 0 0.000 196.96654
2572 Au 0 LAT Au 0 0.000 196.96654
2573 Au 0 LAT Au 0 0.000 196.96654
2574 Au 0 LAT Au 0 0.000 196.96654
2575 Au 0 LAT Au 0 0.000 196.96654
2576 Au 0 LAT Au 0 0.000 196.96654
2577 Au 0 LAT Au 0 0.000 196.96654
2578 Au 0 LAT Au 0 0.000 196.96654
2579 Au 0 LAT Au 0 0.000 196.96654
2580 Au 0 LAT Au 0 0.000 196.96654
2581 Au 0 LAT Au 0 0.000 196.96654
2582 Au 0 LAT Au 0 0.000 196.96654
2583 Au 0 LAT Au 0 0.000 196.96654
2584 Au 0 LAT Au 0 0.000 196.96654
2585 Au 0 LAT Au 0 0.000 196.96654
2586 Au 0 LAT Au 0 0.000 196.96654
2587 Au 0 LAT Au 0 0.000 196.96654
2588 Au 0 LAT Au 0 0.000 196.96654
2589 Au 0 LAT Au 0 0.000 196.96654
2590 Au 0 LAT Au 0 0.000 196.96654
2591 Au 0 LAT Au 0 0.000 196.96654
2592 Au 0 LAT Au 0 0.000 196.96654
2593 Au 0 LAT Au 0 0.000 196.96654
2594 Au 0 LAT Au 0 0.000 196.96654
2595 Au 0 LAT Au 0 0.000 196.96654
2596 Au 0 LAT Au 0 0.000 196.96654
2597 Au 0 LAT Au 0 0.000 196.96654
2598 Au 0 LAT Au 0 0.000 196.96654
2599 Au 0 LAT Au 0 0.000 196.96654
2600 Au 0 LAT Au 0 0.000 196.96654
2601 Au 0 LAT Au 0 0.000 196.96654
2602 Au 0 LAT Au 0 0.000 196.96654
2603 Au 0 LAT Au 0 0.000 196.96654
2604 Au 0 LAT Au 0 0.000 196.96654
2605 Au 0 LAT Au 0 0.000 196.96654
2606 Au 0 LAT Au 0 0.000 196.96654
2607 Au 0 LAT Au 0 0.000 196.96654
2608 Au 0 LAT Au 0 0.000 196.96654
2609 Au 0 LAT Au 0 0.000 196.96654
2610 Au 0 LAT Au 0 0.000 196.96654
2611 Au 0 LAT Au 0 0.000 196.96654
2612 Au 0 LAT Au 0 0.000 196.96654
2613 Au 0 LAT Au 0 0.000 196.96654
2614 Au 0 LAT Au 0 0.000 196.96654
2615 Au 0 LAT Au 0 0.000 196.96654
2616 Au 0 LAT Au 0 0.000 196.96654
2617 Au 0 LAT Au 0 0.000 196.96654
2618 Au 0 LAT Au 0 0.000 196.96654
2619 Au 0 LAT Au 0 0.000 196.96654
2620 Au 0 LAT Au 0 0.000 196.96654
2621 Au 0 LAT Au 0 0.000 196.96654
2622 Au 0 LAT Au 0 0.000 196.96654
2623 Au 0 LAT Au 0 0.000 196.96654
2624 Au 0 LAT Au 0 0.000 196.96654
2625 Au 0 LAT Au 0 0.000 196.96654
2626 Au 0 LAT Au 0 0.000 196.96654
2627 Au 0 LAT Au 0 0.000 196.96654
2628 Au 0 LAT Au 0 0.000 196.96654
2629 Au 0 LAT Au 0 0.000 196.96654
2630 Au 0 LAT Au 0 0.000 196.96654
2631 Au 0 LAT Au 0 0.000 196.96654
2632 Au 0 LAT Au 0 0.000 196.96654
2633 Au 0 LAT Au 0 0.000 196.96654
2634 Au 0 LAT Au 0 0.000 196.96654
2635 Au 0 LAT Au 0 0.000 196.96654
2636 Au 0 LAT Au 0 0.000 196.96654
2637 Au 0 LAT Au 0 0.000 196.96654
2638 Au 0 LAT Au 0 0.000 196.96654
2639 Au 0 LAT Au 0 0.000 196.96654
2640 Au 0 LAT Au 0 0.000 196.96654
2641 Au 0 LAT Au 0 0.000 196.96654
2642 Au 0 LAT Au 0 0.000 196.96654
2643 Au 0 LAT Au 0 0.000 196.96654
2644 Au 0 LAT Au 0 0.000 196.96654
2645 Au 0 LAT Au 0 0.000 196.96654
2646 Au 0 LAT Au 0 0.000 196.96654
2647 Au 0 LAT Au 0 0.000 196.96654
2648 Au 0 LAT Au 0 0.000 196.96654
2649 Au 0 LAT Au 0 0.000 196.96654
2650 Au 0 LAT Au 0 0.000 196.96654
2651 Au 0 LAT Au 0 0.000 196.96654
2652 Au 0 LAT Au 0 0.000 196.96654
2653 Au 0 LAT Au 0 0.000 196.96654
2654 Au 0 LAT Au 0 0.000 196.96654
2655 Au 0 LAT Au 0 0.000 196.96654
2656 Au 0 LAT Au 0 0.000 196.96654
2657 Au 0 LAT Au 0 0.000 196.96654
2658 Au 0 LAT Au 0 0.000 196.96654
2659 Au 0 LAT Au 0 0.000 196.96654
2660 Au 0 LAT Au 0 0.000 196.96654
2661 Au 0 LAT Au 0 0.000 196.96654
2662 Au 0 LAT Au 0 0.000 196.96654
2663 Au 0 LAT Au 0 0.000 196.96654
2664 Au 0 LAT Au 0 0.000 196.96654
2665 Au 0 LAT Au 0 0.000 196.96654
2666 Au 0 LAT Au 0 0.000 196.96654
2667 Au 0 LAT Au 0 0.000 196.96654
2668 Au 0 LAT Au 0 0.000 196.96654
2669 Au 0 LAT Au 0 0.000 196.96654
2670 Au 0 LAT Au 0 0.000 196.96654
2671 Au 0 LAT Au 0 0.000 196.96654
2672 Au 0 LAT Au 0 0.000 196.96654
2673 Au 0 LAT Au 0 0.000 196.96654
2674 Au 0 LAT Au 0 0.000 196.96654
2675 Au 0 LAT Au 0 0.000 196.96654
2676 Au 0 LAT Au 0 0.000 196.96654
2677 Au 0 LAT Au 0 0.000 196.96654
2678 Au 0 LAT Au 0 0.000 196.96654
2679 Au 0 LAT Au 0 0.000 196.96654
2680 Au 0 LAT Au 0 0.000 196.96654
2681 Au 0 LAT Au 0 0.000 196.96654
2682 Au 0 LAT Au 0 0.000 196.96654
2683 Au 0 LAT Au 0 0.000 196.96654
2684 Au 0 LAT Au 0 0.000 196.96654
2685 Au 0 LAT Au 0 0.000 196.96654
2686 Au 0 LAT Au 0 0.000 196.96654
2687 Au 0 LAT Au 0 0.000 196.96654
2688 Au 0 LAT Au 0 0.000 196.96654
2689 Au 0 LAT Au 0 0.000 196.96654
2690 Au 0 LAT Au 0 0.000 196.96654
2691 Au 0 LAT Au 0 0.000 196.96654
2692 Au 0 LAT Au 0 0.000 196.96654
2693 Au 0 LAT Au 0 0.000 196.96654
2694 Au 0 LAT Au 0 0.000 196.96654
2695 Au 0 LAT Au 0 0.000 196.96654
2696 Au 0 LAT Au 0 0.000 196.96654
2697 Au 0 LAT Au 0 0.000 196.96654
2698 Au 0 LAT Au 0 0.000 196.96654
2699 Au 0 LAT Au 0 0.000 196.96654
2700 Au 0 LAT Au 0 0.000 196.96654
2701 Au 0 LAT Au 0 0.000 196.96654
2702 Au 0 LAT Au 0 0.000 196.96654
2703 Au 0 LAT Au 0 0.000 196.96654
2704 Au 0 LAT Au 0 0.000 196.96654
2705 Au 0 LAT Au 0 0.000 196.96654
2706 Au 0 LAT Au 0 0.000 196.96654
2707 Au 0 LAT Au 0 0.000 196.96654
2708 Au 0 LAT Au 0 0.000 196.96654
2709 Au 0 LAT Au 0 0.000 196.96654
2710 Au 0 LAT Au 0 0.000 196.96654
2711 Au 0 LAT Au 0 0.000 196.96654
2712 Au 0 LAT Au 0 0.000 196.96654
2713 Au 0 LAT Au 0 0.000 196.96654
2714 Au 0 LAT Au 0 0.000 196.96654
2715 Au 0 LAT Au 0 0.000 196.96654
2716 Au 0 LAT Au 0 0.000 196.96654
2717 Au 0 LAT Au 0 0.000 196.96654
2718 Au 0 LAT Au 0 0.000 196.96654
2719 Au 0 LAT Au 0 0.000 196.96654
2720 Au 0 LAT Au 0 0.000 196.96654
2721 Au 0 LAT Au 0 0.000 196.96654
2722 Au 0 LAT Au 0 0.000 196.96654
2723 Au 0 LAT Au 0 0.000 196.96654
2724 Au 0 LAT Au 0 0.000 196.96654
2725 Au 0 LAT Au 0 0.000 196.96654
2726 Au 0 LAT Au 0 0.000 196.96654
2727 Au 0 LAT Au 0 0.000 196.96654
2728 Au 0 LAT Au 0 0.000 196.96654
2729 Au 0 LAT Au 0 0.000 196.96654
2730 Au 0 LAT Au 0 0.000 196.96654
2731 Au 0 LAT Au 0 0.000 196.96654
2732 Au 0 LAT Au 0 0.000 196.96654
2733 Au 0 LAT Au 0 0.000 196.96654
2734 Au 0 LAT Au 0 0.000 196.96654
2735 Au 0 LAT Au 0 0.000 196.96654
2736 Au 0 LAT Au 0 0.000 196.96654
2737 Au 0 LAT Au 0 0.000 196.96654
2738 Au 0 LAT Au 0 0.000 196.96654
2739 Au 0 LAT Au 0 0.000 196.96654
2740 Au 0 LAT Au 0 0.000 196.96654
2741 Au 0 LAT Au 0 0.000 196.96654
2742 Au 0 LAT Au 0 0.000 196.96654
2743 Au 0 LAT Au 0 0.000 196.96654
2744 Au 0 LAT Au 0 0.000 196.96654
2745 Au 0 LAT Au 0 0.000 196.96654
2746 Au 0 LAT Au 0 0.000 196.96654
2747 Au 0 LAT Au 0 0.000 196.96654
2748 Au 0 LAT Au 0 0.000 196.96654
2749 Au 0 LAT Au 0 0.000 196.96654
2750 Au 0 LAT Au 0 0.000 196.96654
2751 Au 0 LAT Au 0 0.000 196.96654
2752 Au 0 LAT Au 0 0.000 196.96654
2753 Au 0 LAT Au 0 0.000 196.96654
2754 Au 0 LAT Au 0 0.000 196.96654
2755 Au 0 LAT Au 0 0.000 196.96654
2756 Au 0 LAT Au 0 0.000 196.96654
2757 Au 0 LAT Au 0 0.000 196.96654
2758 Au 0 LAT Au 0 0.000 196.96654
2759 Au 0 LAT Au 0 0.000 196.96654
2760 Au 0 LAT Au 0 0.000 196.96654
2761 Au 0 LAT Au 0 0.000 196.96654
2762 Au 0 LAT Au 0 0.000 196.96654
2763 Au 0 LAT Au 0 0.000 196.96654
2764 Au 0 LAT Au 0 0.000 196.96654
2765 Au 0 LAT Au 0 0.000 196.96654
2766 Au 0 LAT Au 0 0.000 196.96654
2767 Au 0 LAT Au 0 0.000 196.96654
2768 Au 0 LAT Au 0 0.000 196.96654
2769 Au 0 LAT Au 0 0.000 196.96654
2770 Au 0 LAT Au 0 0.000 196.96654
2771 Au 0 LAT Au 0 0.000 196.96654
2772 Au 0 LAT Au 0 0.000 196.96654
2773 Au 0 LAT Au 0 0.000 196.96654
2774 Au 0 LAT Au 0 0.000 196.96654
2775 Au 0 LAT Au 0 0.000 196.96654
2776 Au 0 LAT Au 0 0.000 196.96654
2777 Au 0 LAT Au 0 0.000 196.96654
2778 Au 0 LAT Au 0 0.000 196.96654
2779 Au 0 LAT Au 0 0.000 196.96654
2780 Au 0 LAT Au 0 0.000 196.96654
2781 Au 0 LAT Au 0 0.000 196.96654
2782 Au 0 LAT Au 0 0.000 196.96654
2783 Au 0 LAT Au 0 0.000 196.96654
2784 Au 0 LAT Au 0 0.000 196.96654
2785 Au 0 LAT Au 0 0.000 196.96654
2786 Au 0 LAT Au 0 0.000 196.96654
2787 Au 0 LAT Au 0 0.000 196.96654
2788 Au 0 LAT Au 0 0.000 196.96654
2789 Au 0 LAT Au 0 0.000 196.96654
2790 Au 0 LAT Au 0 0.000 196.96654
2791 Au 0 LAT Au 0 0.000 196.96654
2792 Au 0 LAT Au 0 0.000 196.96654
2793 Au 0 LAT Au 0 0.000 196.96654
2794 Au 0 LAT Au 0 0.000 196.96654
2795 Au 0 LAT Au 0 0.000 196.96654
2796 Au 0 LAT Au 0 0.000 196.96654
2797 Au 0 LAT Au 0 0.000 196.96654
2798 Au 0 LAT Au 0 0.000 196.96654
2799 Au 0 LAT Au 0 0.000 196.96654
2800 Au 0 LAT Au 0 0.000 196.96654
2801 Au 0 LAT Au 0 0.000 196.96654
2802 Au 0 LAT Au 0 0.000 196.96654
2803 Au 0 LAT Au 0 0.000 196.96654
2804 Au 0 LAT Au 0 0.000 196.96654
2805 Au 0 LAT Au 0 0.000 196.96654
2806 Au 0 LAT Au 0 0.000 196.96654
2807 Au 0 LAT Au 0 0.000 196.96654
2808 Au 0 LAT Au 0 0.000 196.96654
2809 Au 0 LAT Au 0 0.000 196.96654
2810 Au 0 LAT Au 0 0.000 196.96654
2811 Au 0 LAT Au 0 0.000 196.96654
2812 Au 0 LAT Au 0 0.000 196.96654
2813 Au 0 LAT Au 0 0.000 196.96654
2814 Au 0 LAT Au 0 0.000 196.96654
2815 Au 0 LAT Au 0 0.000 196.96654
2816 Au 0 LAT Au 0 0.000 196.96654
2817 Au 0 LAT Au 0 0.000 196.96654
2818 Au 0 LAT Au 0 0.000 196.96654
2819 Au 0 LAT Au 0 0.000 196.96654
2820 Au 0 LAT Au 0 0.000 196.96654
2821 Au 0 LAT Au 0 0.000 196.96654
2822 Au 0 LAT Au 0 0.000 196.96654
2823 Au 0 LAT Au 0 0.000 196.96654
2824 Au 0 LAT Au 0 0.000 196.96654
2825 Au 0 LAT Au 0 0.000 196.96654
2826 Au 0 LAT Au 0 0.000 196.96654
2827 Au 0 LAT Au 0 0.000 196.96654
2828 Au 0 LAT Au 0 0.000 196.96654
2829 Au 0 LAT Au 0 0.000 196.96654
2830 Au 0 LAT Au 0 0.000 196.96654
2831 Au 0 LAT Au 0 0.000 196.96654
2832 Au 0 LAT Au 0 0.000 196.96654
2833 Au 0 LAT Au 0 0.000 196.96654
2834 Au 0 LAT Au 0 0.000 196.96654
2835 Au 0 LAT Au 0 0.000 196.96654
2836 Au 0 LAT Au 0 0.000 196.96654
2837 Au 0 LAT Au 0 0.000 196.96654
2838 Au 0 LAT Au 0 0.000 196.96654
2839 Au 0 LAT Au 0 0.000 196.96654
2840 Au 0 LAT Au 0 0.000 196.96654
2841 Au 0 LAT Au 0 0.000 196.96654
2842 Au 0 LAT Au 0 0.000 196.96654
2843 Au 0 LAT Au 0 0.000 196.96654
2844 Au 0 LAT Au 0 0.000 196.96654
2845 Au 0 LAT Au 0 0.000 196.96654
2846 Au 0 LAT Au 0 0.000 196.96654
2847 Au 0 LAT Au 0 0.000 196.96654
2848 Au 0 LAT Au 0 0.000 196.96654
2849 Au 0 LAT Au 0 0.000 196.96654
2850 Au 0 LAT Au 0 0.000 196.96654
2851 Au 0 LAT Au 0 0.000 196.96654
2852 Au 0 LAT Au 0 0.000 196.96654
2853 Au 0 LAT Au 0 0.000 196.96654
2854 Au 0 LAT Au 0 0.000 196.96654
2855 Au 0 LAT Au 0 0.000 196.96654
2856 Au 0 LAT Au 0 0.000 196.96654
2857 Au 0 LAT Au 0 0.000 196.96654
2858 Au 0 LAT Au 0 0.000 196.96654
2859 Au 0 LAT Au 0 0.000 196.96654
2860 Au 0 LAT Au 0 0.000 196.96654
2861 Au 0 LAT Au 0 0.000 196.96654
2862 Au 0 LAT Au 0 0.000 196.96654
2863 Au 0 LAT Au 0 0.000 196.96654
2864 Au 0 LAT Au 0 0.000 196.96654
2865 Au 0 LAT Au 0 0.000 196.96654
2866 Au 0 LAT Au 0 0.000 196.96654
2867 Au 0 LAT Au 0 0.000 196.96654
2868 Au 0 LAT Au 0 0.000 196.96654
2869 Au 0 LAT Au 0 0.000 196.96654
2870 Au 0 LAT Au 0 0.000 196.96654
2871 Au 0 LAT Au 0 0.000 196.96654
2872 Au 0 LAT Au 0 0.000 196.96654
2873 Au 0 LAT Au 0 0.000 196.96654
2874 Au 0 LAT Au 0 0.000 196.96654
2875 Au 0 LAT Au 0 0.000 196.96654
2876 Au 0 LAT Au 0 0.000 196.96654
2877 Au 0 LAT Au 0 0.000 196.96654
2878 Au 0 LAT Au 0 0.000 196.96654
2879 Au 0 LAT Au 0 0.000 196.96654
2880 Au 0 LAT Au 0 0.000 196.96654
2881 Au 0 LAT Au 0 0.000 196.96654
2882 Au 0 LAT Au 0 0.000 196.96654
2883 Au 0 LAT Au 0 0.000 196.96654
2884 Au 0 LAT Au 0 0.000 196.96654
2885 Au 0 LAT Au 0 0.000 196.96654
2886 Au 0 LAT Au 0 0.000 196.96654
2887 Au 0 LAT Au 0 0.000 196.96654
2888 Au 0 LAT Au 0 0.000 196.96654
2889 Au 0 LAT Au 0 0.000 196.96654
2890 Au 0 LAT Au 0 0.000 196.96654
2891 Au 0 LAT Au 0 0.000 196.96654
2892 Au 0 LAT Au 0 0.000 196.96654
2893 Au 0 LAT Au 0 0.000 196.96654
2894 Au 0 LAT Au 0 0.000 196.96654
2895 Au 0 LAT Au 0 0.000 196.96654
2896 Au 0 LAT Au 0 0.000 196.96654
2897 Au 0 LAT Au 0 0.000 196.96654
2898 Au 0 LAT Au 0 0.000 196.96654
2899 Au 0 LAT Au 0 0.000 196.96654
2900 Au 0 LAT Au 0 0.000 196.96654
2901 Au 0 LAT Au 0 0.000 196.96654
2902 Au 0 LAT Au 0 0.000 196.96654
2903 Au 0 LAT Au 0 0.000 196.96654
2904 Au 0 LAT Au 0 0.000 196.96654
2905 Au 0 LAT Au 0 0.000 196.96654
2906 Au 0 LAT Au 0 0.000 196.96654
2907 Au 0 LAT Au 0 0.000 196.96654
2908 Au 0 LAT Au 0 0.000 196.96654
2909 Au 0 LAT Au 0 0.000 196.96654
2910 Au 0 LAT Au 0 0.000 196.96654
2911 Au 0 LAT Au 0 0.000 196.96654
2912 Au 0 LAT Au 0 0.000 196.96654
2913 Au 0 LAT Au 0 0.000 196.96654
2914 Au 0 LAT Au 0 0.000 196.96654
2915 Au 0 LAT Au 0 0.000 196.96654
2916 Au 0 LAT Au 0 0.000 196.96654
2917 Au 0 LAT Au 0 0.000 196.96654
2918 Au 0 LAT Au 0 0.000 196.96654
2919 Au 0 LAT Au 0 0.000 196.96654
2920 Au 0 LAT Au 0 0.000 196.96654
2921 Au 0 LAT Au 0 0.000 196.96654
2922 Au 0 LAT Au 0 0.000 196.96654
2923 Au 0 LAT Au 0 0.000 196.96654
2924 Au 0 LAT Au 0 0.000 196.96654
2925 Au 0 LAT Au 0 0.000 196.96654
2926 Au 0 LAT Au 0 0.000 196.96654
2927 Au 0 LAT Au 0 0.000 196.96654
2928 Au 0 LAT Au 0 0.000 196.96654
2929 Au 0 LAT Au 0 0.000 196.96654
2930 Au 0 LAT Au 0 0.000 196.96654
2931 Au 0 LAT Au 0 0.000 196.96654
2932 Au 0 LAT Au 0 0.000 196.96654
2933 Au 0 LAT Au 0 0.000 196.96654
2934 Au 0 LAT Au 0 0.000 196.96654
2935 Au 0 LAT Au 0 0.000 196.96654
2936 Au 0 LAT Au 0 0.000 196.96654
2937 Au 0 LAT Au 0 0.000 196.96654
2938 Au 0 LAT Au 0 0.000 196.96654
2939 Au 0 LAT Au 0 0.000 196.96654
2940 Au 0 LAT Au 0 0.000 196.96654
2941 Au 0 LAT Au 0 0.000 196.96654
2942 Au 0 LAT Au 0 0.000 196.96654
2943 Au 0 LAT Au 0 0.000 196.96654
2944 Au 0 LAT Au 0 0.000 196.96654
2945 Au 0 LAT Au 0 0.000 196.96654
2946 Au 0 LAT Au 0 0.000 196.96654
2947 Au 0 LAT Au 0 0.000 196.96654
2948 Au 0 LAT Au 0 0.000 196.96654
2949 Au 0 LAT Au 0 0.000 196.96654
2950 Au 0 LAT Au 0 0.000 196.96654
2951 Au 0 LAT Au 0 0.000 196.96654
2952 Au 0 LAT Au 0 0.000 196.96654
2953 Au 0 LAT Au 0 0.000 196.96654
2954 Au 0 LAT Au 0 0.000 196.96654
2955 Au 0 LAT Au 0 0.000 196.96654
2956 Au 0 LAT Au 0 0.000 196.96654
2957 Au 0 LAT Au 0 0.000 196.96654
2958 Au 0 LAT Au 0 0.000 196.96654
2959 Au 0 LAT Au 0 0.000 196.96654
2960 Au 0 LAT Au 0 0.000 196.96654
2961 Au 0 LAT Au 0 0.000 196.96654
2962 Au 0 LAT Au 0 0.000 196.96654
2963 Au 0 LAT Au 0 0.000 196.96654
2964 Au 0 LAT Au 0 0.000 196.96654
2965 Au 0 LAT Au 0 0.000 196.96654
2966 Au 0 LAT Au 0 0.000 196.96654
2967 Au 0 LAT Au 0 0.000 196.96654
2968 Au 0 LAT Au 0 0.000 196.96654
2969 Au 0 LAT Au 0 0.000 196.96654
2970 Au 0 LAT Au 0 0.000 196.96654
2971 Au 0 LAT Au 0 0.000 196.96654
2972 Au 0 LAT Au 0 0.000 196.96654
2973 Au 0 LAT Au 0 0.000 196.96654
2974 Au 0 LAT Au 0 0.000 196.96654
2975 Au 0 LAT Au 0 0.000 196.96654
2976 Au 0 LAT Au 0 0.000 196.96654
2977 Au 0 LAT Au 0 0.000 196.96654
2978 Au 0 LAT Au 0 0.000 196.96654
2979 Au 0 LAT Au 0 0.000 196.96654
2980 Au 0 LAT Au 0 0.000 196.96654
2981 Au 0 LAT Au 0 0.000 196.96654
2982 Au 0 LAT Au 0 0.000 196.96654
2983 Au 0 LAT Au 0 0.000 196.96654
2984 Au 0 LAT Au 0 0.000 196.96654
2985 Au 0 LAT Au 0 0.000 196.96654
2986 Au 0 LAT Au 0 0.000 196.96654
2987 Au 0 LAT Au 0 0.000 196.96654
2988 Au 0 LAT Au 0 0.000 196.96654
2989 Au 0 LAT Au 0 0.000 196.96654
2990 Au 0 LAT Au 0 0.000 196.96654
2991 Au 0 LAT Au 0 0.000 196.96654
2992 Au 0 LAT Au 0 0.000 196.96654
2993 Au 0 LAT Au 0 0.000 196.96654
2994 Au 0 LAT Au 0 0.000 196.96654
2995 Au 0 LAT Au 0 0.000 196.96654
2996 Au 0 LAT Au 0 0.000 196.96654
2997 Au 0 LAT Au 0 0.000 196.96654
2998 Au 0 LAT Au 0 0.000 196.96654
2999 Au 0 LAT Au 0 0.000 196.96654
3000 Au 0 LAT Au 0 0.000 196.96654
3001 Au 0 LAT Au 0 0.000 196.96654
3002 Au 0 LAT Au 0 0.000 196.96654
3003 Au 0 LAT Au 0 0.000 196.96654
3004 Au 0 LAT Au 0 0.000 196.96654
3005 Au 0 LAT Au 0 0.000 196.96654
3006 Au 0 LAT Au 0 0.000 196.96654
3007 Au 0 LAT Au 0 0.000 196.96654
3008 Au 0 LAT Au 0 0.000 196.96654
3009 Au 0 LAT Au 0 0.000 196.96654
3010 Au 0 LAT Au 0 0.000 196.96654
3011 Au 0 LAT Au 0 0.000 196.96654
3012 Au 0 LAT Au 0 0.000 196.96654
3013 Au 0 LAT Au 0 0.000 196.96654
3014 Au 0 LAT Au 0 0.000 196.96654
3015 Au 0 LAT Au 0 0.000 196.96654
3016 Au 0 LAT Au 0 0.000 196.96654
3017 Au 0 LAT Au 0 0.000 196.96654
3018 Au 0 LAT Au 0 0.000 196.96654
3019 Au 0 LAT Au 0 0.000 196.96654
3020 Au 0 LAT Au 0 0.000 196.96654
3021 Au 0 LAT Au 0 0.000 196.96654
3022 Au 0 LAT Au 0 0.000 196.96654
3023 Au 0 LAT Au 0 0.000 196.96654
3024 Au 0 LAT Au 0 0.000 196.96654
3025 Au 0 LAT Au 0 0.000 196.96654
3026 Au 0 LAT Au 0 0.000 196.96654
3027 Au 0 LAT Au 0 0.000 196.96654
3028 Au 0 LAT Au 0 0.000 196.96654
3029 Au 0 LAT Au 0 0.000 196.96654
3030 Au 0 LAT Au 0 0.000 196.96654
3031 Au 0 LAT Au 0 0.000 196.96654
3032 Au 0 LAT Au 0 0.000 196.96654
3033 Au 0 LAT Au 0 0.000 196.96654
3034 Au 0 LAT Au 0 0.000 196.96654
3035 Au 0 LAT Au 0 0.000 196.96654
3036 Au 0 LAT Au 0 0.000 196.96654
3037 Au 0 LAT Au 0 0.000 196.96654
3038 Au 0 LAT Au 0 0.000 196.96654
3039 Au 0 LAT Au 0 0.000 196.96654
3040 Au 0 LAT Au 0 0.000 196.96654
3041 Au 0 LAT Au 0 0.000 196.96654
3042 Au 0 LAT Au 0 0.000 196.96654
3043 Au 0 LAT Au 0 0.000 196.96654
3044 Au 0 LAT Au 0 0.000 196.96654
3045 Au 0 LAT Au 0 0.000 196.96654
3046 Au 0 LAT Au 0 0.000 196.96654
3047 Au 0 LAT Au 0 0.000 196.96654
3048 Au 0 LAT Au 0 0.000 196.96654
3049 Au 0 LAT Au 0 0.000 196.96654
3050 Au 0 LAT Au 0 0.000 196.96654
3051 Au 0 LAT Au 0 0.000 196.96654
3052 Au 0 LAT Au 0 0.000 196.96654
3053 Au 0 LAT Au 0 0.000 196.96654
3054 Au 0 LAT Au 0 0.000 196.96654
3055 Au 0 LAT Au 0 0.000 196.96654
3056 Au 0 LAT Au 0 0.000 196.96654
3057 Au 0 LAT Au 0 0.000 196.96654
3058 Au 0 LAT Au 0 0.000 196.96654
3059 Au 0 LAT Au 0 0.000 196.96654
3060 Au 0 LAT Au 0 0.000 196.96654
3061 Au 0 LAT Au 0 0.000 196.96654
3062 Au 0 LAT Au 0 0.000 196.96654
3063 Au 0 LAT Au 0 0.000 196.96654
3064 Au 0 LAT Au 0 0.000 196.96654
3065 Au 0 LAT Au 0 0.000 196.96654
3066 Au 0 LAT Au 0 0.000 196.96654
3067 Au 0 LAT Au 0 0.000 196.96654
3068 Au 0 LAT Au 0 0.000 196.96654
3069 Au 0 LAT Au 0 0.000 196.96654
3070 Au 0 LAT Au 0 0.000 196.96654
3071 Au 0 LAT Au 0 0.000 196.96654
3072 Au 0 LAT Au 0 0.000 196.96654
3073 Au 0 LAT Au 0 0.000 196.96654
3074 Au 0 LAT Au 0 0.000 196.96654
3075 Au 0 LAT Au 0 0.000 196.96654
3076 Au 0 LAT Au 0 0.000 196.96654
3077 Au 0 LAT Au 0 0.000 196.96654
3078 Au 0 LAT Au 0 0.000 196.96654
3079 Au 0 LAT Au 0 0.000 196.96654
3080 Au 0 LAT Au 0 0.000 196.96654
3081 Au 0 LAT Au 0 0.000 196.96654
3082 Au 0 LAT Au 0 0.000 196.96654
3083 Au 0 LAT Au 0 0.000 196.96654
3084 Au 0 LAT Au 0 0.000 196.96654
3085 Au 0 LAT Au 0 0.000 196.96654
3086 Au 0 LAT Au 0 0.000 196.96654
3087 Au 0 LAT Au 0 0.000 196.96654
3088 Au 0 LAT Au 0 0.000 196.96654
3089 Au 0 LAT Au 0 0.000 196.96654
3090 Au 0 LAT Au 0 0.000 196.96654
3091 Au 0 LAT Au 0 0.000 196.96654
3092 Au 0 LAT Au 0 0.000 196.96654
3093 Au 0 LAT Au 0 0.000 196.96654
3094 Au 0 LAT Au 0 0.000 196.96654
3095 Au 0 LAT Au 0 0.000 196.96654
3096 Au 0 LAT Au 0 0.000 196.96654
3097 Au 0 LAT Au 0 0.000 196.96654
3098 Au 0 LAT Au 0 0.000 196.96654
3099 Au 0 LAT Au 0 0.000 196.96654
3100 Au 0 LAT Au 0 0.000 196.96654
3101 Au 0 LAT Au 0 0.000 196.96654
3102 Au 0 LAT Au 0 0.000 196.96654
3103 Au 0 LAT Au 0 0.000 196.96654
3104 Au 0 LAT Au 0 0.000 196.96654
3105 Au 0 LAT Au 0 0.000 196.96654
3106 Au 0 LAT Au 0 0.000 196.96654
3107 Au 0 LAT Au 0 0.000 196.96654
3108 Au 0 LAT Au 0 0.000 196.96654
3109 Au 0 LAT Au 0 0.000 196.96654
3110 Au 0 LAT Au 0 0.000 196.96654
3111 Au 0 LAT Au 0 0.000 196.96654
3112 Au 0 LAT Au 0 0.000 196.96654
3113 Au 0 LAT Au 0 0.000 196.96654
3114 Au 0 LAT Au 0 0.000 196.96654
3115 Au 0 LAT Au 0 0.000 196.96654
3116 Au 0 LAT Au 0 0.000 196.96654
3117 Au 0 LAT Au 0 0.000 196.96654
3118 Au 0 LAT Au 0 0.000 196.96654
3119 Au 0 LAT Au 0 0.000 196.96654
3120 Au 0 LAT Au 0 0.000 196.96654
3121 Au 0 LAT Au 0 0.000 196.96654
3122 Au 0 LAT Au 0 0.000 196.96654
3123 Au 0 LAT Au 0 0.000 196.96654
3124 Au 0 LAT Au 0 0.000 196.96654
3125 Au 0 LAT Au 0 0.000 196.96654
3126 Au 0 LAT Au 0 0.000 196.96654
3127 Au 0 LAT Au 0 0.000 196.96654
3128 Au 0 LAT Au 0 0.000 196.96654
3129 Au 0 LAT Au 0 0.000 196.96654
3130 Au 0 LAT Au 0 0.000 196.96654
3131 Au 0 LAT Au 0 0.000 196.96654
3132 Au 0 LAT Au 0 0.000 196.96654
3133 Au 0 LAT Au 0 0.000 196.96654
3134 Au 0 LAT Au 0 0.000 196.96654
3135 Au 0 LAT Au 0 0.000 196.96654
3136 Au 0 LAT Au 0 0.000 196.96654
3137 Au 0 LAT Au 0 0.000 196.96654
3138 Au 0 LAT Au 0 0.000 196.96654
3139 Au 0 LAT Au 0 0.000 196.96654
3140 Au 0 LAT Au 0 0.000 196.96654
3141 Au 0 LAT Au 0 0.000 196.96654
3142 Au 0 LAT Au 0 0.000 196.96654
3143 Au 0 LAT Au 0 0.000 196.96654
3144 Au 0 LAT Au 0 0.000 196.96654
3145 Au 0 LAT Au 0 0.000 196.96654
3146 Au 0 LAT Au 0 0.000 196.96654
3147 Au 0 LAT Au 0 0.000 196.96654
3148 Au 0 LAT Au 0 0.000 196.96654
3149 Au 0 LAT Au 0 0.000 196.96654
3150 Au 0 LAT Au 0 0.000 196.96654
3151 Au 0 LAT Au 0 0.000 196.96654
3152 Au 0 LAT Au 0 0.000 196.96654
3153 Au 0 LAT Au 0 0.000 196.96654
3154 Au 0 LAT Au 0 0.000 196.96654
3155 Au 0 LAT Au 0 0.000 196.96654
3156 Au 0 LAT Au 0 0.000 196.96654
3157 Au 0 LAT Au 0 0.000 196.96654
3158 Au 0 LAT Au 0 0.000 196.96654
3159 Au 0 LAT Au 0 0.000 196.96654
3160 Au 0 LAT Au 0 0.000 196.96654
3161 Au 0 LAT Au 0 0.000 196.96654
3162 Au 0 LAT Au 0 0.000 196.96654
3163 Au 0 LAT Au 0 0.000 196.96654
3164 Au 0 LAT Au 0 0.000 196.96654
3165 Au 0 LAT Au 0 0.000 196.96654
3166 Au 0 LAT Au 0 0.000 196.96654
3167 Au 0 LAT Au 0 0.000 196.96654
3168 Au 0 LAT Au 0 0.000 196.96654
3169 Au 0 LAT Au 0 0.000 196.96654
3170 Au 0 LAT Au 0 0.000 196.96654
3171 Au 0 LAT Au 0 0.000 196.96654
3172 Au 0 LAT Au 0 0.000 196.96654
3173 Au 0 LAT Au 0 0.000 196.96654
3174 Au 0 LAT Au 0 0.000 196.96654
3175 Au 0 LAT Au 0 0.000 196.96654
3176 Au 0 LAT Au 0 0.000 196.96654
3177 Au 0 LAT Au 0 0.000 196.96654
3178 Au 0 LAT Au 0 0.000 196.96654
3179 Au 0 LAT Au 0 0.000 196.96654
3180 Au 0 LAT Au 0 0.000 196.96654
3181 Au 0 LAT Au 0 0.000 196.96654
3182 Au 0 LAT Au 0 0.000 196.96654
3183 Au 0 LAT Au 0 0.000 196.96654
3184 Au 0 LAT Au 0 0.000 196.96654
3185 Au 0 LAT Au 0 0.000 196.96654
3186 Au 0 LAT Au 0 0.000 196.96654
3187 Au 0 LAT Au 0 0.000 196.96654
3188 Au 0 LAT Au 0 0.000 196.96654
3189 Au 0 LAT Au 0 0.000 196.96654
3190 Au 0 LAT Au 0 0.000 196.96654
3191 Au 0 LAT Au 0 0.000 196.96654
3192 Au 0 LAT Au 0 0.000 196.96654
3193 Au 0 LAT Au 0 0.000 196.96654
3194 Au 0 LAT Au 0 0.000 196.96654
3195 Au 0 LAT Au 0 0.000 196.96654
3196 Au 0 LAT Au 0 0.000 196.96654
3197 Au 0 LAT Au 0 0.000 196.96654
3198 Au 0 LAT Au 0 0.000 196.96654
3199 Au 0 LAT Au 0 0.000 196.96654
3200 Au 0 LAT Au 0 0.000 196.96654
3201 Au 0 LAT Au 0 0.000 196.96654
3202 Au 0 LAT Au 0 0.000 196.96654
3203 Au 0 LAT Au 0 0.000 196.96654
3204 Au 0 LAT Au 0 0.000 196.96654
3205 Au 0 LAT Au 0 0.000 196.96654
3206 Au 0 LAT Au 0 0.000 196.96654
3207 Au 0 LAT Au 0 0.000 196.96654
3208 Au 0 LAT Au 0 0.000 196.96654
3209 Au 0 LAT Au 0 0.000 196.96654
3210 Au 0 LAT Au 0 0.000 196.96654
3211 Au 0 LAT Au 0 0.000 196.96654
3212 Au 0 LAT Au 0 0.000 196.96654
3213 Au 0 LAT Au 0 0.000 196.96654
3214 Au 0 LAT Au 0 0.000 196.96654
3215 Au 0 LAT Au 0 0.000 196.96654
3216 Au 0 LAT Au 0 0.000 196.96654
3217 Au 0 LAT Au 0 0.000 196.96654
3218 Au 0 LAT Au 0 0.000 196.96654
3219 Au 0 LAT Au 0 0.000 196.96654
3220 Au 0 LAT Au 0 0.000 196.96654
3221 Au 0 LAT Au 0 0.000 196.96654
3222 Au 0 LAT Au 0 0.000 196.96654
3223 Au 0 LAT Au 0 0.000 196.96654
3224 Au 0 LAT Au 0 0.000 196.96654
3225 Au 0 LAT Au 0 0.000 196.96654
3226 Au 0 LAT Au 0 0.000 196.96654
3227 Au 0 LAT Au 0 0.000 196.96654
3228 Au 0 LAT Au 0 0.000 196.96654
3229 Au 0 LAT Au 0 0.000 196.96654
3230 Au 0 LAT Au 0 0.000 196.96654
3231 Au 0 LAT Au 0 0.000 196.96654
3232 Au 0 LAT Au 0 0.000 196.96654
3233 Au 0 LAT Au 0 0.000 196.96654
3234 Au 0 LAT Au 0 0.000 196.96654
3235 Au 0 LAT Au 0 0.000 196.96654
3236 Au 0 LAT Au 0 0.000 196.96654
3237 Au 0 LAT Au 0 0.000 196.96654
3238 Au 0 LAT Au 0 0.000 196.96654
3239 Au 0 LAT Au 0 0.000 196.96654
3240 Au 0 LAT Au 0 0.000 196.96654
3241 Au 0 LAT Au 0 0.000 196.96654
3242 Au 0 LAT Au 0 0.000 196.96654
3243 Au 0 LAT Au 0 0.000 196.96654
3244 Au 0 LAT Au 0 0.000 196.96654
3245 Au 0 LAT Au 0 0.000 196.96654
3246 Au 0 LAT Au 0 0.000 196.96654
3247 Au 0 LAT Au 0 0.000 196.96654
3248 Au 0 LAT Au 0 0.000 196.96654
3249 Au 0 LAT Au 0 0.000 196.96654
3250 Au 0 LAT Au 0 0.000 196.96654
3251 Au 0 LAT Au 0 0.000 196.96654
3252 Au 0 LAT Au 0 0.000 196.96654
3253 Au 0 LAT Au 0 0.000 196.96654
3254 Au 0 LAT Au 0 0.000 196.96654
3255 Au 0 LAT Au 0 0.000 196.96654
3256 Au 0 LAT Au 0 0.000 196.96654
3257 Au 0 LAT Au 0 0.000 196.96654
3258 Au 0 LAT Au 0 0.000 196.96654
3259 Au 0 LAT Au 0 0.000 196.96654
3260 Au 0 LAT Au 0 0.000 196.96654
3261 Au 0 LAT Au 0 0.000 196.96654
3262 Au 0 LAT Au 0 0.000 196.96654
3263 Au 0 LAT Au 0 0.000 196.96654
3264 Au 0 LAT Au 0 0.000 196.96654
3265 Au 0 LAT Au 0 0.000 196.96654
3266 Au 0 LAT Au 0 0.000 196.96654
3267 Au 0 LAT Au 0 0.000 196.96654
3268 Au 0 LAT Au 0 0.000 196.96654
3269 Au 0 LAT Au 0 0.000 196.96654
3270 Au 0 LAT Au 0 0.000 196.96654
3271 Au 0 LAT Au 0 0.000 196.96654
3272 Au 0 LAT Au 0 0.000 196.96654
3273 Au 0 LAT Au 0 0.000 196.96654
3274 Au 0 LAT Au 0 0.000 196.96654
3275 Au 0 LAT Au 0 0.000 196.96654
3276 Au 0 LAT Au 0 0.000 196.96654
3277 Au 0 LAT Au 0 0.000 196.96654
3278 Au 0 LAT Au 0 0.000 196.96654
3279 Au 0 LAT Au 0 0.000 196.96654
3280 Au 0 LAT Au 0 0.000 196.96654
3281 Au 0 LAT Au 0 0.000 196.96654
3282 Au 0 LAT Au 0 0.000 196.96654
3283 Au 0 LAT Au 0 0.000 196.96654
3284 Au 0 LAT Au 0 0.000 196.96654
3285 Au 0 LAT Au 0 0.000 196.96654
3286 Au 0 LAT Au 0 0.000 196.96654
3287 Au 0 LAT Au 0 0.000 196.96654
3288 Au 0 LAT Au 0 0.000 196.96654
3289 Au 0 LAT Au 0 0.000 196.96654
3290 Au 0 LAT Au 0 0.000 196.96654
3291 Au 0 LAT Au 0 0.000 196.96654
3292 Au 0 LAT Au 0 0.000 196.96654
3293 Au 0 LAT Au 0 0.000 196.96654
3294 Au 0 LAT Au 0 0.000 196.96654
3295 Au 0 LAT Au 0 0.000 196.96654
3296 Au 0 LAT Au 0 0.000 196.96654
3297 Au 0 LAT Au 0 0.000 196.96654
3298 Au 0 LAT Au 0 0.000 196.96654
3299 Au 0 LAT Au 0 0.000 196.96654
3300 Au 0 LAT Au 0 0.000 196.96654
3301 Au 0 LAT Au 0 0.000 196.96654
3302 Au 0 LAT Au 0 0.000 196.96654
3303 Au 0 LAT Au 0 0.000 196.96654
3304 Au 0 LAT Au 0 0.000 196.96654
3305 Au 0 LAT Au 0 0.000 196.96654
3306 Au 0 LAT Au 0 0.000 196.96654
3307 Au 0 LAT Au 0 0.000 196.96654
3308 Au 0 LAT Au 0 0.000 196.96654
3309 Au 0 LAT Au 0 0.000 196.96654
3310 Au 0 LAT Au 0 0.000 196.96654
3311 Au 0 LAT Au 0 0.000 196.96654
3312 Au 0 LAT Au 0 0.000 196.96654
3313 Au 0 LAT Au 0 0.000 196.96654
3314 Au 0 LAT Au 0 0.000 196.96654
3315 Au 0 LAT Au 0 0.000 196.96654
3316 Au 0 LAT Au 0 0.000 196.96654
3317 Au 0 LAT Au 0 0.000 196.96654
3318 Au 0 LAT Au 0 0.000 196.96654
3319 Au 0 LAT Au 0 0.000 196.96654
3320 Au 0 LAT Au 0 0.000 196.96654
3321 Au 0 LAT Au 0 0.000 196.96654
3322 Au 0 LAT Au 0 0.000 196.96654
3323 Au 0 LAT Au 0 0.000 196.96654
3324 Au 0 LAT Au 0 0.000 196.96654
3325 Au 0 LAT Au 0 0.000 196.96654
3326 Au 0 LAT Au 0 0.000 196.96654
3327 Au 0 LAT Au 0 0.000 196.96654
3328 Au 0 LAT Au 0 0.000 196.96654
3329 Au 0 LAT Au 0 0.000 196.96654
3330 Au 0 LAT Au 0 0.000 196.96654
3331 Au 0 LAT Au 0 0.000 196.96654
3332 Au 0 LAT Au 0 0.000 196.96654
3333 Au 0 LAT Au 0 0.000 196.96654
3334 Au 0 LAT Au 0 0.000 196.96654
3335 Au 0 LAT Au 0 0.000 196.96654
3336 Au 0 LAT Au 0 0.000 196.96654
3337 Au 0 LAT Au 0 0.000 196.96654
3338 Au 0 LAT Au 0 0.000 196.96654
3339 Au 0 LAT Au 0 0.000 196.96654
3340 Au 0 LAT Au 0 0.000 196.96654
3341 Au 0 LAT Au 0 0.000 196.96654
3342 Au 0 LAT Au 0 0.000 196.96654
3343 Au 0 LAT Au 0 0.000 196.96654
3344 Au 0 LAT Au 0 0.000 196.96654
3345 Au 0 LAT Au 0 0.000 196.96654
3346 Au 0 LAT Au 0 0.000 196.96654
3347 Au 0 LAT Au 0 0.000 196.96654
3348 Au 0 LAT Au 0 0.000 196.96654
3349 Au 0 LAT Au 0 0.000 196.96654
3350 Au 0 LAT Au 0 0.000 196.96654
3351 Au 0 LAT Au 0 0.000 196.96654
3352 Au 0 LAT Au 0 0.000 196.96654
3353 Au 0 LAT Au 0 0.000 196.96654
3354 Au 0 LAT Au 0 0.000 196.96654
3355 Au 0 LAT Au 0 0.000 196.96654
3356 Au 0 LAT Au 0 0.000 196.96654
3357 Au 0 LAT Au 0 0.000 196.96654
3358 Au 0 LAT Au 0 0.000 196.96654
3359 Au 0 LAT Au 0 0.000 196.96654
3360 Au 0 LAT Au 0 0.000 196.96654
3361 Au 0 LAT Au 0 0.000 196.96654
3362 Au 0 LAT Au 0 0.000 196.96654
3363 Au 0 LAT Au 0 0.000 196.96654
3364 Au 0 LAT Au 0 0.000 196.96654
3365 Au 0 LAT Au 0 0.000 196.96654
3366 Au 0 LAT Au 0 0.000 196.96654
3367 Au 0 LAT Au 0 0.000 196.96654
3368 Au 0 LAT Au 0 0.000 196.96654
3369 Au 0 LAT Au 0 0.000 196.96654
3370 Au 0 LAT Au 0 0.000 196.96654
3371 Au 0 LAT Au 0 0.000 196.96654
3372 Au 0 LAT Au 0 0.000 196.96654
3373 Au 0 LAT Au 0 0.000 196.96654
3374 Au 0 LAT Au 0 0.000 196.96654
3375 Au 0 LAT Au 0 0.000 196.96654
3376 Au 0 LAT Au 0 0.000 196.96654
3377 Au 0 LAT Au 0 0.000 196.96654
3378 Au 0 LAT Au 0 0.000 196.96654
3379 Au 0 LAT Au 0 0.000 196.96654
3380 Au 0 LAT Au 0 0.000 196.96654
3381 Au 0 LAT Au 0 0.000 196.96654
3382 Au 0 LAT Au 0 0.000 196.96654
3383 Au 0 LAT Au 0 0.000 196.96654
3384 Au 0 LAT Au 0 0.000 196.96654
3385 Au 0 LAT Au 0 0.000 196.96654
3386 Au 0 LAT Au 0 0.000 196.96654
3387 Au 0 LAT Au 0 0.000 196.96654
3388 Au 0 LAT Au 0 0.000 196.96654
3389 Au 0 LAT Au 0 0.000 196.96654
3390 Au 0 LAT Au 0 0.000 196.96654
3391 Au 0 LAT Au 0 0.000 196.96654
3392 Au 0 LAT Au 0 0.000 196.96654
3393 Au 0 LAT Au 0 0.000 196.96654
3394 Au 0 LAT Au 0 0.000 196.96654
3395 Au 0 LAT Au 0 0.000 196.96654
3396 Au 0 LAT Au 0 0.000 196.96654
3397 Au 0 LAT Au 0 0.000 196.96654
3398 Au 0 LAT Au 0 0.000 196.96654
3399 Au 0 LAT Au 0 0.000 196.96654
3400 Au 0 LAT Au 0 0.000 196.96654
3401 Au 0 LAT Au 0 0.000 196.96654
3402 Au 0 LAT Au 0 0.000 196.96654
3403 Au 0 LAT Au 0 0.000 196.96654
3404 Au 0 LAT Au 0 0.000 196.96654
3405 Au 0 LAT Au 0 0.000 196.96654
3406 Au 0 LAT Au 0 0.000 196.96654
3407 Au 0 LAT Au 0 0.000 196.96654
3408 Au 0 LAT Au 0 0.000 196.96654
3409 Au 0 LAT Au 0 0.000 196.96654
3410 Au 0 LAT Au 0 0.000 196.96654
3411 Au 0 LAT Au 0 0.000 196.96654
3412 Au 0 LAT Au 0 0.000 196.96654
3413 Au 0 LAT Au 0 0.000 196.96654
3414 Au 0 LAT Au 0 0.000 196.96654
3415 Au 0 LAT Au 0 0.000 196.96654
3416 Au 0 LAT Au 0 0.000 196.96654
3417 Au 0 LAT Au 0 0.000 196.96654
3418 Au 0 LAT Au 0 0.000 196.96654
3419 Au 0 LAT Au 0 0.000 196.96654
3420 Au 0 LAT Au 0 0.000 196.96654
3421 Au 0 LAT Au 0 0.000 196.96654
3422 Au 0 LAT Au 0 0.000 196.96654
3423 Au 0 LAT Au 0 0.000 196.96654
3424 Au 0 LAT Au 0 0.000 196.96654
3425 Au 0 LAT Au 0 0.000 196.96654
3426 Au 0 LAT Au 0 0.000 196.96654
3427 Au 0 LAT Au 0 0.000 196.96654
3428 Au 0 LAT Au 0 0.000 196.96654
3429 Au 0 LAT Au 0 0.000 196.96654
3430 Au 0 LAT Au 0 0.000 196.96654
3431 Au 0 LAT Au 0 0.000 196.96654
3432 Au 0 LAT Au 0 0.000 196.96654
3433 Au 0 LAT Au 0 0.000 196.96654
3434 Au 0 LAT Au 0 0.000 196.96654
3435 Au 0 LAT Au 0 0.000 196.96654
3436 Au 0 LAT Au 0 0.000 196.96654
3437 Au 0 LAT Au 0 0.000 196.96654
3438 Au 0 LAT Au 0 0.000 196.96654
3439 Au 0 LAT Au 0 0.000 196.96654
3440 Au 0 LAT Au 0 0.000 196.96654
3441 Au 0 LAT Au 0 0.000 196.96654
3442 Au 0 LAT Au 0 0.000 196.96654
3443 Au 0 LAT Au 0 0.000 196.96654
3444 Au 0 LAT Au 0 0.000 196.96654
3445 Au 0 LAT Au 0 0.000 196.96654
3446 Au 0 LAT Au 0 0.000 196.96654
3447 Au 0 LAT Au 0 0.000 196.96654
3448 Au 0 LAT Au 0 0.000 196.96654
3449 Au 0 LAT Au 0 0.000 196.96654
3450 Au 0 LAT Au 0 0.000 196.96654
3451 Au 0 LAT Au 0 0.000 196.96654
3452 Au 0 LAT Au 0 0.000 196.96654
3453 Au 0 LAT Au 0 0.000 196.96654
3454 Au 0 LAT Au 0 0.000 196.96654
3455 Au 0 LAT Au 0 0.000 196.96654
3456 Au 0 LAT Au 0 0.000 196.96654
3457 Au 0 LAT Au 0 0.000 196.96654
3458 Au 0 LAT Au 0 0.000 196.96654
3459 Au 0 LAT Au 0 0.000 196.96654
3460 Au 0 LAT Au 0 0.000 196.96654
3461 Au 0 LAT Au 0 0.000 196.96654
3462 Au 0 LAT Au 0 0.000 196.96654
3463 Au 0 LAT Au 0 0.000 196.96654
3464 Au 0 LAT Au 0 0.000 196.96654
3465 Au 0 LAT Au 0 0.000 196.96654
3466 Au 0 LAT Au 0 0.000 196.96654
3467 Au 0 LAT Au 0 0.000 196.96654
3468 Au 0 LAT Au 0 0.000 196.96654
3469 Au 0 LAT Au 0 0.000 196.96654
3470 Au 0 LAT Au 0 0.000 196.96654
3471 Au 0 LAT Au 0 0.000 196.96654
3472 Au 0 LAT Au 0 0.000 196.96654
3473 Au 0 LAT Au 0 0.000 196.96654
3474 Au 0 LAT Au 0 0.000 196.96654
3475 Au 0 LAT Au 0 0.000 196.96654
3476 Au 0 LAT Au 0 0.000 196.96654
3477 Au 0 LAT Au 0 0.000 196.96654
3478 Au 0 LAT Au 0 0.000 196.96654
3479 Au 0 LAT Au 0 0.000 196.96654
3480 Au 0 LAT Au 0 0.000 196.96654
3481 Au 0 LAT Au 0 0.000 196.96654
3482 Au 0 LAT Au 0 0.000 196.96654
3483 Au 0 LAT Au 0 0.000 196.96654
3484 Au 0 LAT Au 0 0.000 196.96654
3485 Au 0 LAT Au 0 0.000 196.96654
3486 Au 0 LAT Au 0 0.000 196.96654
3487 Au 0 LAT Au 0 0.000 196.96654
3488 Au 0 LAT Au 0 0.000 196.96654
3489 Au 0 LAT Au 0 0.000 196.96654
3490 Au 0 LAT Au 0 0.000 196.96654
3491 Au 0 LAT Au 0 0.000 196.96654
3492 Au 0 LAT Au 0 0.000 196.96654
3493 Au 0 LAT Au 0 0.000 196.96654
3494 Au 0 LAT Au 0 0.000 196.96654
3495 Au 0 LAT Au 0 0.000 196.96654
3496 Au 0 LAT Au 0 0.000 196.96654
3497 Au 0 LAT Au 0 0.000 196.96654
3498 Au 0 LAT Au 0 0.000 196.96654
3499 Au 0 LAT Au 0 0.000 196.96654
3500 Au 0 LAT Au 0 0.000 196.96654
3501 Au 0 LAT Au 0 0.000 196.96654
3502 Au 0 LAT Au 0 0.000 196.96654
3503 Au 0 LAT Au 0 0.000 196.96654
3504 Au 0 LAT Au 0 0.000 196.96654
3505 Au 0 LAT Au 0 0.000 196.96654
3506 Au 0 LAT Au 0 0.000 196.96654
3507 Au 0 LAT Au 0 0.000 196.96654
3508 Au 0 LAT Au 0 0.000 196.96654
3509 Au 0 LAT Au 0 0.000 196.96654
3510 Au 0 LAT Au 0 0.000 196.96654
3511 Au 0 LAT Au 0 0.000 196.96654
3512 Au 0 LAT Au 0 0.000 196.96654
3513 Au 0 LAT Au 0 0.000 196.96654
3514 Au 0 LAT Au 0 0.000 196.96654
3515 Au 0 LAT Au 0 0.000 196.96654
3516 Au 0 LAT Au 0 0.000 196.96654
3517 Au 0 LAT Au 0 0.000 196.96654
3518 Au 0 LAT Au 0 0.000 196.96654
3519 Au 0 LAT Au 0 0.000 196.96654
3520 Au 0 LAT Au 0 0.000 196.96654
3521 Au 0 LAT Au 0 0.000 196.96654
3522 Au 0 LAT Au 0 0.000 196.96654
3523 Au 0 LAT Au 0 0.000 196.96654
3524 Au 0 LAT Au 0 0.000 196.96654
3525 Au 0 LAT Au 0 0.000 196.96654
3526 Au 0 LAT Au 0 0.000 196.96654
3527 Au 0 LAT Au 0 0.000 196.96654
3528 Au 0 LAT Au 0 0.000 196.96654
3529 Au 0 LAT Au 0 0.000 196.96654
3530 Au 0 LAT Au 0 0.000 196.96654
3531 Au 0 LAT Au 0 0.000 196.96654
3532 Au 0 LAT Au 0 0.000 196.96654
3533 Au 0 LAT Au 0 0.000 196.96654
3534 Au 0 LAT Au 0 0.000 196.96654
3535 Au 0 LAT Au 0 0.000 196.96654
3536 Au 0 LAT Au 0 0.000 196.96654
3537 Au 0 LAT Au 0 0.000 196.96654
3538 Au 0 LAT Au 0 0.000 196.96654
3539 Au 0 LAT Au 0 0.000 196.96654
3540 Au 0 LAT Au 0 0.000 196.96654
3541 Au 0 LAT Au 0 0.000 196.96654
3542 Au 0 LAT Au 0 0.000 196.96654
3543 Au 0 LAT Au 0 0.000 196.96654
3544 Au 0 LAT Au 0 0.000 196.96654
3545 Au 0 LAT Au 0 0.000 196.96654
3546 Au 0 LAT Au 0 0.000 196.96654
3547 Au 0 LAT Au 0 0.000 196.96654
3548 Au 0 LAT Au 0 0.000 196.96654
3549 Au 0 LAT Au 0 0.000 196.96654
3550 Au 0 LAT Au 0 0.000 196.96654
3551 Au 0 LAT Au 0 0.000 196.96654
3552 Au 0 LAT Au 0 0.000 196.96654
3553 Au 0 LAT Au 0 0.000 196.96654
3554 Au 0 LAT Au 0 0.000 196.96654
3555 Au 0 LAT Au 0 0.000 196.96654
3556 Au 0 LAT Au 0 0.000 196.96654
3557 Au 0 LAT Au 0 0.000 196.96654
3558 Au 0 LAT Au 0 0.000 196.96654
3559 Au 0 LAT Au 0 0.000 196.96654
3560 Au 0 LAT Au 0 0.000 196.96654
3561 Au 0 LAT Au 0 0.000 196.96654
3562 Au 0 LAT Au 0 0.000 196.96654
3563 Au 0 LAT Au 0 0.000 196.96654
3564 Au 0 LAT Au 0 0.000 196.96654
3565 Au 0 LAT Au 0 0.000 196.96654
3566 Au 0 LAT Au 0 0.000 196.96654
3567 Au 0 LAT Au 0 0.000 196.96654
3568 Au 0 LAT Au 0 0.000 196.96654
3569 Au 0 LAT Au 0 0.000 196.96654
3570 Au 0 LAT Au 0 0.000 196.96654
3571 Au 0 LAT Au 0 0.000 196.96654
3572 Au 0 LAT Au 0 0.000 196.96654
3573 Au 0 LAT Au 0 0.000 196.96654
3574 Au 0 LAT Au 0 0.000 196.96654
3575 Au 0 LAT Au 0 0.000 196.96654
3576 Au 0 LAT Au 0 0.000 196.96654
3577 Au 0 LAT Au 0 0.000 196.96654
3578 Au 0 LAT Au 0 0.000 196.96654
3579 Au 0 LAT Au 0 0.000 196.96654
3580 Au 0 LAT Au 0 0.000 196.96654
3581 Au 0 LAT Au 0 0.000 196.96654
3582 Au 0 LAT Au 0 0.000 196.96654
3583 Au 0 LAT Au 0 0.000 196.96654
3584 Au 0 LAT Au 0 0.000 196.96654
3585 Au 0 LAT Au 0 0.000 196.96654
3586 Au 0 LAT Au 0 0.000 196.96654
3587 Au 0 LAT Au 0 0.000 196.96654
3588 Au 0 LAT Au 0 0.000 196.96654
3589 Au 0 LAT Au 0 0.000 196.96654
3590 Au 0 LAT Au 0 0.000 196.96654
3591 Au 0 LAT Au 0 0.000 196.96654
3592 Au 0 LAT Au 0 0.000 196.96654
3593 Au 0 LAT Au 0 0.000 196.96654
3594 Au 0 LAT Au 0 0.000 196.96654
3595 Au 0 LAT Au 0 0.000 196.96654
3596 Au 0 LAT Au 0 0.000 196.96654
3597 Au 0 LAT Au 0 0.000 196.96654
3598 Au 0 LAT Au 0 0.000 196.96654
3599 Au 0 LAT Au 0 0.000 196.96654
3600 Au 0 LAT Au 0 0.000 196.96654
3601 Au 0 LAT Au 0 0.000 196.96654
3602 Au 0 LAT Au 0 0.000 196.96654
3603 Au 0 LAT Au 0 0.000 196.96654
3604 Au 0 LAT Au 0 0.000 196.96654
3605 Au 0 LAT Au 0 0.000 196.96654
3606 Au 0 LAT Au 0 0.000 196.96654
3607 Au 0 LAT Au 0 0.000 196.96654
3608 Au 0 LAT Au 0 0.000 196.96654
3609 Au 0 LAT Au 0 0.000 196.96654
3610 Au 0 LAT Au 0 0.000 196.96654
3611 Au 0 LAT Au 0 0.000 196.96654
3612 Au 0 LAT Au 0 0.000 196.96654
3613 Au 0 LAT Au 0 0.000 196.96654
3614 Au 0 LAT Au 0 0.000 196.96654
3615 Au 0 LAT Au 0 0.000 196.96654
3616 Au 0 LAT Au 0 0.000 196.96654
3617 Au 0 LAT Au 0 0.000 196.96654
3618 Au 0 LAT Au 0 0.000 196.96654
3619 Au 0 LAT Au 0 0.000 196.96654
3620 Au 0 LAT Au 0 0.000 196.96654
3621 Au 0 LAT Au 0 0.000 196.96654
3622 Au 0 LAT Au 0 0.000 196.96654
3623 Au 0 LAT Au 0 0.000 196.96654
3624 Au 0 LAT Au 0 0.000 196.96654
3625 Au 0 LAT Au 0 0.000 196.96654
3626 Au 0 LAT Au 0 0.000 196.96654
3627 Au 0 LAT Au 0 0.000 196.96654
3628 Au 0 LAT Au 0 0.000 196.96654
3629 Au 0 LAT Au 0 0.000 196.96654
3630 Au 0 LAT Au 0 0.000 196.96654
3631 Au 0 LAT Au 0 0.000 196.96654
3632 Au 0 LAT Au 0 0.000 196.96654
3633 Au 0 LAT Au 0 0.000 196.96654
3634 Au 0 LAT Au 0 0.000 196.96654
3635 Au 0 LAT Au 0 0.000 196.96654
3636 Au 0 LAT Au 0 0.000 196.96654
3637 Au 0 LAT Au 0 0.000 196.96654
3638 Au 0 LAT Au 0 0.000 196.96654
3639 Au 0 LAT Au 0 0.000 196.96654
3640 Au 0 LAT Au 0 0.000 196.96654
3641 Au 0 LAT Au 0 0.000 196.96654
3642 Au 0 LAT Au 0 0.000 196.96654
3643 Au 0 LAT Au 0 0.000 196.96654
3644 Au 0 LAT Au 0 0.000 196.96654
3645 Au 0 LAT Au 0 0.000 196.96654
3646 Au 0 LAT Au 0 0.000 196.96654
3647 Au 0 LAT Au 0 0.000 196.96654
3648 Au 0 LAT Au 0 0.000 196.96654
3649 Au 0 LAT Au 0 0.000 196.96654
3650 Au 0 LAT Au 0 0.000 196.96654
3651 Au 0 LAT Au 0 0.000 196.96654
3652 Au 0 LAT Au 0 0.000 196.96654
3653 Au 0 LAT Au 0 0.000 196.96654
3654 Au 0 LAT Au 0 0.000 196.96654
3655 Au 0 LAT Au 0 0.000 196.96654
3656 Au 0 LAT Au 0 0.000 196.96654
3657 Au 0 LAT Au 0 0.000 196.96654
3658 Au 0 LAT Au 0 0.000 196.96654
3659 Au 0 LAT Au 0 0.000 196.96654
3660 Au 0 LAT Au 0 0.000 196.96654
3661 Au 0 LAT Au 0 0.000 196.96654
3662 Au 0 LAT Au 0 0.000 196.96654
3663 Au 0 LAT Au 0 0.000 196.96654
3664 Au 0 LAT Au 0 0.000 196.96654
3665 Au 0 LAT Au 0 0.000 196.96654
3666 Au 0 LAT Au 0 0.000 196.96654
3667 Au 0 LAT Au 0 0.000 196.96654
3668 Au 0 LAT Au 0 0.000 196.96654
3669 Au 0 LAT Au 0 0.000 196.96654
3670 Au 0 LAT Au 0 0.000 196.96654
3671 Au 0 LAT Au 0 0.000 196.96654
3672 Au 0 LAT Au 0 0.000 196.96654
3673 Au 0 LAT Au 0 0.000 196.96654
3674 Au 0 LAT Au 0 0.000 196.96654
3675 Au 0 LAT Au 0 0.000 196.96654
3676 Au 0 LAT Au 0 0.000 196.96654
3677 Au 0 LAT Au 0 0.000 196.96654
3678 Au 0 LAT Au 0 0.000 196.96654
3679 Au 0 LAT Au 0 0.000 196.96654
3680 Au 0 LAT Au 0 0.000 196.96654
3681 Au 0 LAT Au 0 0.000 196.96654
3682 Au 0 LAT Au 0 0.000 196.96654
3683 Au 0 LAT Au 0 0.000 196.96654
3684 Au 0 LAT Au 0 0.000 196.96654
3685 Au 0 LAT Au 0 0.000 196.96654
3686 Au 0 LAT Au 0 0.000 196.96654
3687 Au 0 LAT Au 0 0.000 196.96654
3688 Au 0 LAT Au 0 0.000 196.96654
3689 Au 0 LAT Au 0 0.000 196.96654
3690 Au 0 LAT Au 0 0.000 196.96654
3691 Au 0 LAT Au 0 0.000 196.96654
3692 Au 0 LAT Au 0 0.000 196.96654
3693 Au 0 LAT Au 0 0.000 196.96654
3694 Au 0 LAT Au 0 0.000 196.96654
3695 Au 0 LAT Au 0 0.000 196.96654
3696 Au 0 LAT Au 0 0.000 196.96654
3697 Au 0 LAT Au 0 0.000 196.96654
3698 Au 0 LAT Au 0 0.000 196.96654
3699 Au 0 LAT Au 0 0.000 196.96654
3700 Au 0 LAT Au 0 0.000 196.96654
3701 Au 0 LAT Au 0 0.000 196.96654
3702 Au 0 LAT Au 0 0.000 196.96654
3703 Au 0 LAT Au 0 0.000 196.96654
3704 Au 0 LAT Au 0 0.000 196.96654
3705 Au 0 LAT Au 0 0.000 196.96654
3706 Au 0 LAT Au 0 0.000 196.96654
3707 Au 0 LAT Au 0 0.000 196.96654
3708 Au 0 LAT Au 0 0.000 196.96654
3709 Au 0 LAT Au 0 0.000 196.96654
3710 Au 0 LAT Au 0 0.000 196.96654
3711 Au 0 LAT Au 0 0.000 196.96654
3712 Au 0 LAT Au 0 0.000 196.96654
3713 Au 0 LAT Au 0 0.000 196.96654
3714 Au 0 LAT Au 0 0.000 196.96654
3715 Au 0 LAT Au 0 0.000 196.96654
3716 Au 0 LAT Au 0 0.000 196.96654
3717 Au 0 LAT Au 0 0.000 196.96654
3718 Au 0 LAT Au 0 0.000 196.96654
3719 Au 0 LAT Au 0 0.000 196.96654
3720 Au 0 LAT Au 0 0.000 196.96654
3721 Au 0 LAT Au 0 0.000 196.96654
3722 Au 0 LAT Au 0 0.000 196.96654
3723 Au 0 LAT Au 0 0.000 196.96654
3724 Au 0 LAT Au 0 0.000 196.96654
3725 Au 0 LAT Au 0 0.000 196.96654
3726 Au 0 LAT Au 0 0.000 196.96654
3727 Au 0 LAT Au 0 0.000 196.96654
3728 Au 0 LAT Au 0 0.000 196.96654
3729 Au 0 LAT Au 0 0.000 196.96654
3730 Au 0 LAT Au 0 0.000 196.96654
3731 Au 0 LAT Au 0 0.000 196.96654
3732 Au 0 LAT Au 0 0.000 196.96654
3733 Au 0 LAT Au 0 0.000 196.96654
3734 Au 0 LAT Au 0 0.000 196.96654
3735 Au 0 LAT Au 0 0.000 196.96654
3736 Au 0 LAT Au 0 0.000 196.96654
3737 Au 0 LAT Au 0 0.000 196.96654
3738 Au 0 LAT Au 0 0.000 196.96654
3739 Au 0 LAT Au 0 0.000 196.96654
3740 Au 0 LAT Au 0 0.000 196.96654
3741 Au 0 LAT Au 0 0.000 196.96654
3742 Au 0 LAT Au 0 0.000 196.96654
3743 Au 0 LAT Au 0 0.000 196.96654
3744 Au 0 LAT Au 0 0.000 196.96654
3745 Au 0 LAT Au 0 0.000 196.96654
3746 Au 0 LAT Au 0 0.000 196.96654
3747 Au 0 LAT Au 0 0.000 196.96654
3748 Au 0 LAT Au 0 0.000 196.96654
3749 Au 0 LAT Au 0 0.000 196.96654
3750 Au 0 LAT Au 0 0.000 196.96654
3751 Au 0 LAT Au 0 0.000 196.96654
3752 Au 0 LAT Au 0 0.000 196.96654
3753 Au 0 LAT Au 0 0.000 196.96654
3754 Au 0 LAT Au 0 0.000 196.96654
3755 Au 0 LAT Au 0 0.000 196.96654
3756 Au 0 LAT Au 0 0.000 196.96654
3757 Au 0 LAT Au 0 0.000 196.96654
3758 Au 0 LAT Au 0 0.000 196.96654
3759 Au 0 LAT Au 0 0.000 196.96654
3760 Au 0 LAT Au 0 0.000 196.96654
3761 Au 0 LAT Au 0 0.000 196.96654
3762 Au 0 LAT Au 0 0.000 196.96654
3763 Au 0 LAT Au 0 0.000 196.96654
3764 Au 0 LAT Au 0 0.000 196.96654
3765 Au 0 LAT Au 0 0.000 196.96654
3766 Au 0 LAT Au 0 0.000 196.96654
3767 Au 0 LAT Au 0 0.000 196.96654
3768 Au 0 LAT Au 0 0.000 196.96654
3769 Au 0 LAT Au 0 0.000 196.96654
3770 Au 0 LAT Au 0 0.000 196.96654
3771 Au 0 LAT Au 0 0.000 196.96654
3772 Au 0 LAT Au 0 0.000 196.96654
3773 Au 0 LAT Au 0 0.000 196.96654
3774 Au 0 LAT Au 0 0.000 196.96654
3775 Au 0 LAT Au 0 0.000 196.96654
3776 Au 0 LAT Au 0 0.000 196.96654
3777 Au 0 LAT Au 0 0.000 196.96654
3778 Au 0 LAT Au 0 0.000 196.96654
3779 Au 0 LAT Au 0 0.000 196.96654
3780 Au 0 LAT Au 0 0.000 196.96654
3781 Au 0 LAT Au 0 0.000 196.96654
3782 Au 0 LAT Au 0 0.000 196.96654
3783 Au 0 LAT Au 0 0.000 196.96654
3784 Au 0 LAT Au 0 0.000 196.96654
3785 Au 0 LAT Au 0 0.000 196.96654
3786 Au 0 LAT Au 0 0.000 196.96654
3787 Au 0 LAT Au 0 0.000 196.96654
3788 Au 0 LAT Au 0 0.000 196.96654
3789 Au 0 LAT Au 0 0.000 196.96654
3790 Au 0 LAT Au 0 0.000 196.96654
3791 Au 0 LAT Au 0 0.000 196.96654
3792 Au 0 LAT Au 0 0.000 196.96654
3793 Au 0 LAT Au 0 0.000 196.96654
3794 Au 0 LAT Au 0 0.000 196.96654
3795 Au 0 LAT Au 0 0.000 196.96654
3796 Au 0 LAT Au 0 0.000 196.96654
3797 Au 0 LAT Au 0 0.000 196.96654
3798 Au 0 LAT Au 0 0.000 196.96654
3799 Au 0 LAT Au 0 0.000 196.96654
3800 Au 0 LAT Au 0 0.000 196.96654
3801 Au 0 LAT Au 0 0.000 196.96654
3802 Au 0 LAT Au 0 0.000 196.96654
3803 Au 0 LAT Au 0 0.000 196.96654
3804 Au 0 LAT Au 0 0.000 196.96654
3805 Au 0 LAT Au 0 0.000 196.96654
3806 Au 0 LAT Au 0 0.000 196.96654
3807 Au 0 LAT Au 0 0.000 196.96654
3808 Au 0 LAT Au 0 0.000 196.96654
3809 Au 0 LAT Au 0 0.000 196.96654
3810 Au 0 LAT Au 0 0.000 196.96654
3811 Au 0 LAT Au 0 0.000 196.96654
3812 Au 0 LAT Au 0 0.000 196.96654
3813 Au 0 LAT Au 0 0.000 196.96654
3814 Au 0 LAT Au 0 0.000 196.96654
3815 Au 0 LAT Au 0 0.000 196.96654
3816 Au 0 LAT Au 0 0.000 196.96654
3817 Au 0 LAT Au 0 0.000 196.96654
3818 Au 0 LAT Au 0 0.000 196.96654
3819 Au 0 LAT Au 0 0.000 196.96654
3820 Au 0 LAT Au 0 0.000 196.96654
3821 Au 0 LAT Au 0 0.000 196.96654
3822 Au 0 LAT Au 0 0.000 196.96654
3823 Au 0 LAT Au 0 0.000 196.96654
3824 Au 0 LAT Au 0 0.000 196.96654
3825 Au 0 LAT Au 0 0.000 196.96654
3826 Au 0 LAT Au 0 0.000 196.96654
3827 Au 0 LAT Au 0 0.000 196.96654
3828 Au 0 LAT Au 0 0.000 196.96654
3829 Au 0 LAT Au 0 0.000 196.96654
3830 Au 0 LAT Au 0 0.000 196.96654
3831 Au 0 LAT Au 0 0.000 196.96654
3832 Au 0 LAT Au 0 0.000 196.96654
3833 Au 0 LAT Au 0 0.000 196.96654
3834 Au 0 LAT Au 0 0.000 196.96654
3835 Au 0 LAT Au 0 0.000 196.96654
3836 Au 0 LAT Au 0 0.000 196.96654
3837 Au 0 LAT Au 0 0.000 196.96654
3838 Au 0 LAT Au 0 0.000 196.96654
3839 Au 0 LAT Au 0 0.000 196.96654
3840 Au 0 LAT Au 0 0.000 196.96654
3841 Au 0 LAT Au 0 0.000 196.96654
3842 Au 0 LAT Au 0 0.000 196.96654
3843 Au 0 LAT Au 0 0.000 196.96654
3844 Au 0 LAT Au 0 0.000 196.96654
3845 Au 0 LAT Au 0 0.000 196.96654
3846 Au 0 LAT Au 0 0.000 196.96654
3847 Au 0 LAT Au 0 0.000 196.96654
3848 Au 0 LAT Au 0 0.000 196.96654
3849 Au 0 LAT Au 0 0.000 196.96654
3850 Au 0 LAT Au 0 0.000 196.96654
3851 Au 0 LAT Au 0 0.000 196.96654
3852 Au 0 LAT Au 0 0.000 196.96654
3853 Au 0 LAT Au 0 0.000 196.96654
3854 Au 0 LAT Au 0 0.000 196.96654
3855 Au 0 LAT Au 0 0.000 196.96654
3856 Au 0 LAT Au 0 0.000 196.96654
3857 Au 0 LAT Au 0 0.000 196.96654
3858 Au 0 LAT Au 0 0.000 196.96654
3859 Au 0 LAT Au 0 0.000 196.96654
3860 Au 0 LAT Au 0 0.000 196.96654
3861 Au 0 LAT Au 0 0.000 196.96654
3862 Au 0 LAT Au 0 0.000 196.96654
3863 Au 0 LAT Au 0 0.000 196.96654
3864 Au 0 LAT Au 0 0.000 196.96654
3865 Au 0 LAT Au 0 0.000 196.96654
3866 Au 0 LAT Au 0 0.000 196.96654
3867 Au 0 LAT Au 0 0.000 196.96654
3868 Au 0 LAT Au 0 0.000 196.96654
3869 Au 0 LAT Au 0 0.000 196.96654
3870 Au 0 LAT Au 0 0.000 196.96654
3871 Au 0 LAT Au 0 0.000 196.96654
3872 Au 0 LAT Au 0 0.000 196.96654
3873 Au 0 LAT Au 0 0.000 196.96654
3874 Au 0 LAT Au 0 0.000 196.96654
3875 Au 0 LAT Au 0 0.000 196.96654
3876 Au 0 LAT Au 0 0.000 196.96654
3877 Au 0 LAT Au 0 0.000 196.96654
3878 Au 0 LAT Au 0 0.000 196.96654
3879 Au 0 LAT Au 0 0.000 196.96654
3880 Au 0 LAT Au 0 0.000 196.96654
3881 Au 0 LAT Au 0 0.000 196.96654
3882 Au 0 LAT Au 0 0.000 196.96654
3883 Au 0 LAT Au 0 0.000 196.96654
3884 Au 0 LAT Au 0 0.000 196.96654
3885 Au 0 LAT Au 0 0.000 196.96654
3886 Au 0 LAT Au 0 0.000 196.96654
3887 Au 0 LAT Au 0 0.000 196.96654
3888 Au 0 LAT Au 0 0.000 196.96654
3889 Au 0 LAT Au 0 0.000 196.96654
3890 Au 0 LAT Au 0 0.000 196.96654
3891 Au 0 LAT Au 0 0.000 196.96654
3892 Au 0 LAT Au 0 0.000 196.96654
3893 Au 0 LAT Au 0 0.000 196.96654
3894 Au 0 LAT Au 0 0.000 196.96654
3895 Au 0 LAT Au 0 0.000 196.96654
3896 Au 0 LAT Au 0 0.000 196.96654
3897 Au 0 LAT Au 0 0.000 196.96654
3898 Au 0 LAT Au 0 0.000 196.96654
3899 Au 0 LAT Au 0 0.000 196.96654
3900 Au 0 LAT Au 0 0.000 196.96654
3901 Au 0 LAT Au 0 0.000 196.96654
3902 Au 0 LAT Au 0 0.000 196.96654
3903 Au 0 LAT Au 0 0.000 196.96654
3904 Au 0 LAT Au 0 0.000 196.96654
3905 Au 0 LAT Au 0 0.000 196.96654
3906 Au 0 LAT Au 0 0.000 196.96654
3907 Au 0 LAT Au 0 0.000 196.96654
3908 Au 0 LAT Au 0 0.000 196.96654
3909 Au 0 LAT Au 0 0.000 196.96654
3910 Au 0 LAT Au 0 0.000 196.96654
3911 Au 0 LAT Au 0 0.000 196.96654
3912 Au 0 LAT Au 0 0.000 196.96654
3913 Au 0 LAT Au 0 0.000 196.96654
3914 Au 0 LAT Au 0 0.000 196.96654
3915 Au 0 LAT Au 0 0.000 196.96654
3916 Au 0 LAT Au 0 0.000 196.96654
3917 Au 0 LAT Au 0 0.000 196.96654
3918 Au 0 LAT Au 0 0.000 196.96654
3919 Au 0 LAT Au 0 0.000 196.96654
3920 Au 0 LAT Au 0 0.000 196.96654
3921 Au 0 LAT Au 0 0.000 196.96654
3922 Au 0 LAT Au 0 0.000 196.96654
3923 Au 0 LAT Au 0 0.000 196.96654
3924 Au 0 LAT Au 0 0.000 196.96654
3925 Au 0 LAT Au 0 0.000 196.96654
3926 Au 0 LAT Au 0 0.000 196.96654
3927 Au 0 LAT Au 0 0.000 196.96654
3928 Au 0 LAT Au 0 0.000 196.96654
3929 Au 0 LAT Au 0 0.000 196.96654
3930 Au 0 LAT Au 0 0.000 196.96654
3931 Au 0 LAT Au 0 0.000 196.96654
3932 Au 0 LAT Au 0 0.000 196.96654
3933 Au 0 LAT Au 0 0.000 196.96654
3934 Au 0 LAT Au 0 0.000 196.96654
3935 Au 0 LAT Au 0 0.000 196.96654
3936 Au 0 LAT Au 0 0.000 196.96654
3937 Au 0 LAT Au 0 0.000 196.96654
3938 Au 0 LAT Au 0 0.000 196.96654
3939 Au 0 LAT Au 0 0.000 196.96654
3940 Au 0 LAT Au 0 0.000 196.96654
3941 Au 0 LAT Au 0 0.000 196.96654
3942 Au 0 LAT Au 0 0.000 196.96654
3943 Au 0 LAT Au 0 0.000 196.96654
3944 Au 0 LAT Au 0 0.000 196.96654
3945 Au 0 LAT Au 0 0.000 196.96654
3946 Au 0 LAT Au 0 0.000 196.96654
3947 Au 0 LAT Au 0 0.000 196.96654
3948 Au 0 LAT Au 0 0.000 196.96654
3949 Au 0 LAT Au 0 0.000 196.96654
3950 Au 0 LAT Au 0 0.000 196.96654
3951 Au 0 LAT Au 0 0.000 196.96654
3952 Au 0 LAT Au 0 0.000 196.96654
3953 Au 0 LAT Au 0 0.000 196.96654
3954 Au 0 LAT Au 0 0.000 196.96654
3955 Au 0 LAT Au 0 0.000 196.96654
3956 Au 0 LAT Au 0 0.000 196.96654
3957 Au 0 LAT Au 0 0.000 196.96654
3958 Au 0 LAT Au 0 0.000 196.96654
3959 Au 0 LAT Au 0 0.000 196.96654
3960 Au 0 LAT Au 0 0.000 196.96654
3961 Au 0 LAT Au 0 0.000 196.96654
3962 Au 0 LAT Au 0 0.000 196.96654
3963 Au 0 LAT Au 0 0.000 196.96654
3964 Au 0 LAT Au 0 0.000 196.96654
3965 Au 0 LAT Au 0 0.000 196.96654
3966 Au 0 LAT Au 0 0.000 196.96654
3967 Au 0 LAT Au 0 0.000 196.96654
3968 Au 0 LAT Au 0 0.000 196.96654
3969 Au 0 LAT Au 0 0.000 196.96654
3970 Au 0 LAT Au 0 0.000 196.96654
3971 Au 0 LAT Au 0 0.000 196.96654
3972 Au 0 LAT Au 0 0.000 196.96654
3973 Au 0 LAT Au 0 0.000 196.96654
3974 Au 0 LAT Au 0 0.000 196.96654
3975 Au 0 LAT Au 0 0.000 196.96654
3976 Au 0 LAT Au 0 0.000 196.96654
3977 Au 0 LAT Au 0 0.000 196.96654
3978 Au 0 LAT Au 0 0.000 196.96654
3979 Au 0 LAT Au 0 0.000 196.96654
3980 Au 0 LAT Au 0 0.000 196.96654
3981 Au 0 LAT Au 0 0.000 196.96654
3982 Au 0 LAT Au 0 0.000 196.96654
3983 Au 0 LAT Au 0 0.000 196.96654
3984 Au 0 LAT Au 0 0.000 196.96654
3985 Au 0 LAT Au 0 0.000 196.96654
3986 Au 0 LAT Au 0 0.000 196.96654
3987 Au 0 LAT Au 0 0.000 196.96654
3988 Au 0 LAT Au 0 0.000 196.96654
3989 Au 0 LAT Au 0 0.000 196.96654
3990 Au 0 LAT Au 0 0.000 196.96654
3991 Au 0 LAT Au 0 0.000 196.96654
3992 Au 0 LAT Au 0 0.000 196.96654
3993 Au 0 LAT Au 0 0.000 196.96654
3994 Au 0 LAT Au 0 0.000 196.96654
3995 Au 0 LAT Au 0 0.000 196.96654
3996 Au 0 LAT Au 0 0.000 196.96654
3997 Au 0 LAT Au 0 0.000 196.96654
3998 Au 0 LAT Au 0 0.000 196.96654
3999 Au 0 LAT Au 0 0.000 196.96654
4000 Au 0 LAT Au 0 0.000 196.96654
4001 Au 0 LAT Au 0 0.000 196.96654
4002 Au 0 LAT Au 0 0.000 196.96654
4003 Au 0 LAT Au 0 0.000 196.96654
4004 Au 0 LAT Au 0 0.000 196.96654
4005 Au 0 LAT Au 0 0.000 196.96654
4006 Au 0 LAT Au 0 0.000 196.96654
4007 Au 0 LAT Au 0 0.000 196.96654
4008 Au 0 LAT Au 0 0.000 196.96654
4009 Au 0 LAT Au 0 0.000 196.96654
4010 Au 0 LAT Au 0 0.000 196.96654
4011 Au 0 LAT Au 0 0.000 196.96654
4012 Au 0 LAT Au 0 0.000 196.96654
4013 Au 0 LAT Au 0 0.000 196.96654
4014 Au 0 LAT Au 0 0.000 196.96654
4015 Au 0 LAT Au 0 0.000 196.96654
4016 Au 0 LAT Au 0 0.000 196.96654
4017 Au 0 LAT Au 0 0.000 196.96654
4018 Au 0 LAT Au 0 0.000 196.96654
4019 Au 0 LAT Au 0 0.000 196.96654
4020 Au 0 LAT Au 0 0.000 196.96654
4021 Au 0 LAT Au 0 0.000 196.96654
4022 Au 0 LAT Au 0 0.000 196.96654
4023 Au 0 LAT Au 0 0.000 196.96654
4024 Au 0 LAT Au 0 0.000 196.96654
4025 Au 0 LAT Au 0 0.000 196.96654
4026 Au 0 LAT Au 0 0.000 196.96654
4027 Au 0 LAT Au 0 0.000 196.96654
4028 Au 0 LAT Au 0 0.000 196.96654
4029 Au 0 LAT Au 0 0.000 196.96654
4030 Au 0 LAT Au 0 0.000 196.96654
4031 Au 0 LAT Au 0 0.000 196.96654
4032 Au 0 LAT Au 0 0.000 196.96654
4033 Au 0 LAT Au 0 0.000 196.96654
4034 Au 0 LAT Au 0 0.000 196.96654
4035 Au 0 LAT Au 0 0.000 196.96654
4036 Au 0 LAT Au 0 0.000 196.96654
4037 Au 0 LAT Au 0 0.000 196.96654
4038 Au 0 LAT Au 0 0.000 196.96654
4039 Au 0 LAT Au 0 0.000 196.96654
4040 Au 0 LAT Au 0 0.000 196.96654
4041 Au 0 LAT Au 0 0.000 196.96654
4042 Au 0 LAT Au 0 0.000 196.96654
4043 Au 0 LAT Au 0 0.000 196.96654
4044 Au 0 LAT Au 0 0.000 196.96654
4045 Au 0 LAT Au 0 0.000 196.96654
4046 Au 0 LAT Au 0 0.000 196.96654
4047 Au 0 LAT Au 0 0.000 196.96654
4048 Au 0 LAT Au 0 0.000 196.96654
4049 Au 0 LAT Au 0 0.000 196.96654
4050 Au 0 LAT Au 0 0.000 196.96654
4051 Au 0 LAT Au 0 0.000 196.96654
4052 Au 0 LAT Au 0 0.000 196.96654
4053 Au 0 LAT Au 0 0.000 196.96654
4054 Au 0 LAT Au 0 0.000 196.96654
4055 Au 0 LAT Au 0 0.000 196.96654
4056 Au 0 LAT Au 0 0.000 196.96654
4057 Au 0 LAT Au 0 0.000 196.96654
4058 Au 0 LAT Au 0 0.000 196.96654
4059 Au 0 LAT Au 0 0.000 196.96654
4060 Au 0 LAT Au 0 0.000 196.96654
4061 Au 0 LAT Au 0 0.000 196.96654
4062 Au 0 LAT Au 0 0.000 196.96654
4063 Au 0 LAT Au 0 0.000 196.96654
4064 Au 0 LAT Au 0 0.000 196.96654
4065 Au 0 LAT Au 0 0.000 196.96654
4066 Au 0 LAT Au 0 0.000 196.96654
4067 Au 0 LAT Au 0 0.000 196.96654
4068 Au 0 LAT Au 0 0.000 196.96654
4069 Au 0 LAT Au 0 0.000 196.96654
4070 Au 0 LAT Au 0 0.000 196.96654
4071 Au 0 LAT Au 0 0.000 196.96654
4072 Au 0 LAT Au 0 0.000 196.96654
4073 Au 0 LAT Au 0 0.000 196.96654
4074 Au 0 LAT Au 0 0.000 196.96654
4075 Au 0 LAT Au 0 0.000 196.96654
4076 Au 0 LAT Au 0 0.000 196.96654
4077 Au 0 LAT Au 0 0.000 196.96654
4078 Au 0 LAT Au 0 0.000 196.96654
4079 Au 0 LAT Au 0 0.000 196.96654
4080 Au 0 LAT Au 0 0.000 196.96654
4081 Au 0 LAT Au 0 0.000 196.96654
4082 Au 0 LAT Au 0 0.000 196.96654
4083 Au 0 LAT Au 0 0.000 196.96654
4084 Au 0 LAT Au 0 0.000 196.96654
4085 Au 0 LAT Au 0 0.000 196.96654
4086 Au 0 LAT Au 0 0.000 196.96654
4087 Au 0 LAT Au 0 0.000 196.96654
4088 Au 0 LAT Au 0 0.000 196.96654
4089 Au 0 LAT Au 0 0.000 196.96654
4090 Au 0 LAT Au 0 0.000 196.96654
4091 Au 0 LAT Au 0 0.000 196.96654
4092 Au 0 LAT Au 0 0.000 196.96654
4093 Au 0 LAT Au 0 0.000 196.96654
4094 Au 0 LAT Au 0 0.000 196.96654
4095 Au 0 LAT Au 0 0.000 196.96654
4096 Au 0 LAT Au 0 0.000 196.96654
4097 Au 0 LAT Au 0 0.000 196.96654
4098 Au 0 LAT Au 0 0.000 196.96654
4099 Au 0 LAT Au 0 0.000 196.96654
4100 Au 0 LAT Au 0 0.000 196.96654
4101 Au 0 LAT Au 0 0.000 196.96654
4102 Au 0 LAT Au 0 0.000 196.96654
4103 Au 0 LAT Au 0 0.000 196.96654
4104 Au 0 LAT Au 0 0.000 196.96654
4105 Au 0 LAT Au 0 0.000 196.96654
4106 Au 0 LAT Au 0 0.000 196.96654
4107 Au 0 LAT Au 0 0.000 196.96654
4108 Au 0 LAT Au 0 0.000 196.96654
4109 Au 0 LAT Au 0 0.000 196.96654
4110 Au 0 LAT Au 0 0.000 196.96654
4111 Au 0 LAT Au 0 0.000 196.96654
4112 Au 0 LAT Au 0 0.000 196.96654
4113 Au 0 LAT Au 0 0.000 196.96654
4114 Au 0 LAT Au 0 0.000 196.96654
4115 Au 0 LAT Au 0 0.000 196.96654
4116 Au 0 LAT Au 0 0.000 196.96654
4117 Au 0 LAT Au 0 0.000 196.96654
4118 Au 0 LAT Au 0 0.000 196.96654
4119 Au 0 LAT Au 0 0.000 196.96654
4120 Au 0 LAT Au 0 0.000 196.96654
4121 Au 0 LAT Au 0 0.000 196.96654
4122 Au 0 LAT Au 0 0.000 196.96654
4123 Au 0 LAT Au 0 0.000 196.96654
4124 Au 0 LAT Au 0 0.000 196.96654
4125 Au 0 LAT Au 0 0.000 196.96654
4126 Au 0 LAT Au 0 0.000 196.96654
4127 Au 0 LAT Au 0 0.000 196.96654
4128 Au 0 LAT Au 0 0.000 196.96654
4129 Au 0 LAT Au 0 0.000 196.96654
4130 Au 0 LAT Au 0 0.000 196.96654
4131 Au 0 LAT Au 0 0.000 196.96654
4132 Au 0 LAT Au 0 0.000 196.96654
4133 Au 0 LAT Au 0 0.000 196.96654
4134 Au 0 LAT Au 0 0.000 196.96654
4135 Au 0 LAT Au 0 0.000 196.96654
4136 Au 0 LAT Au 0 0.000 196.96654
4137 Au 0 LAT Au 0 0.000 196.96654
4138 Au 0 LAT Au 0 0.000 196.96654
4139 Au 0 LAT Au 0 0.000 196.96654
4140 Au 0 LAT Au 0 0.000 196.96654
4141 Au 0 LAT Au 0 0.000 196.96654
4142 Au 0 LAT Au 0 0.000 196.96654
4143 Au 0 LAT Au 0 0.000 196.96654
4144 Au 0 LAT Au 0 0.000 196.96654
4145 Au 0 LAT Au 0 0.000 196.96654
4146 Au 0 LAT Au 0 0.000 196.96654
4147 Au 0 LAT Au 0 0.000 196.96654
4148 Au 0 LAT Au 0 0.000 196.96654
4149 Au 0 LAT Au 0 0.000 196.96654
4150 Au 0 LAT Au 0 0.000 196.96654
4151 Au 0 LAT Au 0 0.000 196.96654
4152 Au 0 LAT Au 0 0.000 196.96654
4153 Au 0 LAT Au 0 0.000 196.96654
4154 Au 0 LAT Au 0 0.000 196.96654
4155 Au 0 LAT Au 0 0.000 196.96654
4156 Au 0 LAT Au 0 0.000 196.96654
4157 Au 0 LAT Au 0 0.000 196.96654
4158 Au 0 LAT Au 0 0.000 196.96654
4159 Au 0 LAT Au 0 0.000 196.96654
4160 Au 0 LAT Au 0 0.000 196.96654
4161 Au 0 LAT Au 0 0.000 196.96654
4162 Au 0 LAT Au 0 0.000 196.96654
4163 Au 0 LAT Au 0 0.000 196.96654
4164 Au 0 LAT Au 0 0.000 196.96654
4165 Au 0 LAT Au 0 0.000 196.96654
4166 Au 0 LAT Au 0 0.000 196.96654
4167 Au 0 LAT Au 0 0.000 196.96654
4168 Au 0 LAT Au 0 0.000 196.96654
4169 Au 0 LAT Au 0 0.000 196.96654
4170 Au 0 LAT Au 0 0.000 196.96654
4171 Au 0 LAT Au 0 0.000 196.96654
4172 Au 0 LAT Au 0 0.000 196.96654
4173 Au 0 LAT Au 0 0.000 196.96654
4174 Au 0 LAT Au 0 0.000 196.96654
4175 Au 0 LAT Au 0 0.000 196.96654
4176 Au 0 LAT Au 0 0.000 196.96654
4177 Au 0 LAT Au 0 0.000 196.96654
4178 Au 0 LAT Au 0 0.000 196.96654
4179 Au 0 LAT Au 0 0.000 196.96654
4180 Au 0 LAT Au 0 0.000 196.96654
4181 Au 0 LAT Au 0 0.000 196.96654
4182 Au 0 LAT Au 0 0.000 196.96654
4183 Au 0 LAT Au 0 0.000 196.96654
4184 Au 0 LAT Au 0 0.000 196.96654
4185 Au 0 LAT Au 0 0.000 196.96654
4186 Au 0 LAT Au 0 0.000 196.96654
4187 Au 0 LAT Au 0 0.000 196.96654
4188 Au 0 LAT Au 0 0.000 196.96654
4189 Au 0 LAT Au 0 0.000 196.96654
4190 Au 0 LAT Au 0 0.000 196.96654
4191 Au 0 LAT Au 0 0.000 196.96654
4192 Au 0 LAT Au 0 0.000 196.96654
4193 Au 0 LAT Au 0 0.000 196.96654
4194 Au 0 LAT Au 0 0.000 196.96654
4195 Au 0 LAT Au 0 0.000 196.96654
4196 Au 0 LAT Au 0 0.000 196.96654
4197 Au 0 LAT Au 0 0.000 196.96654
4198 Au 0 LAT Au 0 0.000 196.96654
4199 Au 0 LAT Au 0 0.000 196.96654
4200 Au 0 LAT Au 0 0.000 196.96654
4201 Au 0 LAT Au 0 0.000 196.96654
4202 Au 0 LAT Au 0 0.000 196.96654
4203 Au 0 LAT Au 0 0.000 196.96654
4204 Au 0 LAT Au 0 0.000 196.96654
4205 Au 0 LAT Au 0 0.000 196.96654
4206 Au 0 LAT Au 0 0.000 196.96654
4207 Au 0 LAT Au 0 0.000 196.96654
4208 Au 0 LAT Au 0 0.000 196.96654
4209 Au 0 LAT Au 0 0.000 196.96654
4210 Au 0 LAT Au 0 0.000 196.96654
4211 Au 0 LAT Au 0 0.000 196.96654
4212 Au 0 LAT Au 0 0.000 196.96654
4213 Au 0 LAT Au 0 0.000 196.96654
4214 Au 0 LAT Au 0 0.000 196.96654
4215 Au 0 LAT Au 0 0.000 196.96654
4216 Au 0 LAT Au 0 0.000 196.96654
4217 Au 0 LAT Au 0 0.000 196.96654
4218 Au 0 LAT Au 0 0.000 196.96654
4219 Au 0 LAT Au 0 0.000 196.96654
4220 Au 0 LAT Au 0 0.000 196.96654
4221 Au 0 LAT Au 0 0.000 196.96654
4222 Au 0 LAT Au 0 0.000 196.96654
4223 Au 0 LAT Au 0 0.000 196.96654
4224 Au 0 LAT Au 0 0.000 196.96654
4225 Au 0 LAT Au 0 0.000 196.96654
4226 Au 0 LAT Au 0 0.000 196.96654
4227 Au 0 LAT Au 0 0.000 196.96654
4228 Au 0 LAT Au 0 0.000 196.96654
4229 Au 0 LAT Au 0 0.000 196.96654
4230 Au 0 LAT Au 0 0.000 196.96654
4231 Au 0 LAT Au 0 0.000 196.96654
4232 Au 0 LAT Au 0 0.000 196.96654
4233 Au 0 LAT Au 0 0.000 196.96654
4234 Au 0 LAT Au 0 0.000 196.96654
4235 Au 0 LAT Au 0 0.000 196.96654
4236 Au 0 LAT Au 0 0.000 196.96654
4237 Au 0 LAT Au 0 0.000 196.96654
4238 Au 0 LAT Au 0 0.000 196.96654
4239 Au 0 LAT Au 0 0.000 196.96654
4240 Au 0 LAT Au 0 0.000 196.96654
4241 Au 0 LAT Au 0 0.000 196.96654
4242 Au 0 LAT Au 0 0.000 196.96654
4243 Au 0 LAT Au 0 0.000 196.96654
4244 Au 0 LAT Au 0 0.000 196.96654
4245 Au 0 LAT Au 0 0.000 196.96654
4246 Au 0 LAT Au 0 0.000 196.96654
4247 Au 0 LAT Au 0 0.000 196.96654
4248 Au 0 LAT Au 0 0.000 196.96654
4249 Au 0 LAT Au 0 0.000 196.96654
4250 Au 0 LAT Au 0 0.000 196.96654
4251 Au 0 LAT Au 0 0.000 196.96654
4252 Au 0 LAT Au 0 0.000 196.96654
4253 Au 0 LAT Au 0 0.000 196.96654
4254 Au 0 LAT Au 0 0.000 196.96654
4255 Au 0 LAT Au 0 0.000 196.96654
4256 Au 0 LAT Au 0 0.000 196.96654
4257 Au 0 LAT Au 0 0.000 196.96654
4258 Au 0 LAT Au 0 0.000 196.96654
4259 Au 0 LAT Au 0 0.000 196.96654
4260 Au 0 LAT Au 0 0.000 196.96654
4261 Au 0 LAT Au 0 0.000 196.96654
4262 Au 0 LAT Au 0 0.000 196.96654
4263 Au 0 LAT Au 0 0.000 196.96654
4264 Au 0 LAT Au 0 0.000 196.96654
4265 Au 0 LAT Au 0 0.000 196.96654
4266 Au 0 LAT Au 0 0.000 196.96654
4267 Au 0 LAT Au 0 0.000 196.96654
4268 Au 0 LAT Au 0 0.000 196.96654
4269 Au 0 LAT Au 0 0.000 196.96654
4270 Au 0 LAT Au 0 0.000 196.96654
4271 Au 0 LAT Au 0 0.000 196.96654
4272 Au 0 LAT Au 0 0.000 196.96654
4273 Au 0 LAT Au 0 0.000 196.96654
4274 Au 0 LAT Au 0 0.000 196.96654
4275 Au 0 LAT Au 0 0.000 196.96654
4276 Au 0 LAT Au 0 0.000 196.96654
4277 Au 0 LAT Au 0 0.000 196.96654
4278 Au 0 LAT Au 0 0.000 196.96654
4279 Au 0 LAT Au 0 0.000 196.96654
4280 Au 0 LAT Au 0 0.000 196.96654
4281 Au 0 LAT Au 0 0.000 196.96654
4282 Au 0 LAT Au 0 0.000 196.96654
4283 Au 0 LAT Au 0 0.000 196.96654
4284 Au 0 LAT Au 0 0.000 196.96654
4285 Au 0 LAT Au 0 0.000 196.96654
4286 Au 0 LAT Au 0 0.000 196.96654
4287 Au 0 LAT Au 0 0.000 196.96654
4288 Au 0 LAT Au 0 0.000 196.96654
4289 Au 0 LAT Au 0 0.000 196.96654
4290 Au 0 LAT Au 0 0.000 196.96654
4291 Au 0 LAT Au 0 0.000 196.96654
4292 Au 0 LAT Au 0 0.000 196.96654
4293 Au 0 LAT Au 0 0.000 196.96654
4294 Au 0 LAT Au 0 0.000 196.96654
4295 Au 0 LAT Au 0 0.000 196.96654
4296 Au 0 LAT Au 0 0.000 196.96654
4297 Au 0 LAT Au 0 0.000 196.96654
4298 Au 0 LAT Au 0 0.000 196.96654
4299 Au 0 LAT Au 0 0.000 196.96654
4300 Au 0 LAT Au 0 0.000 196.96654
4301 Au 0 LAT Au 0 0.000 196.96654
4302 Au 0 LAT Au 0 0.000 196.96654
4303 Au 0 LAT Au 0 0.000 196.96654
4304 Au 0 LAT Au 0 0.000 196.96654
4305 Au 0 LAT Au 0 0.000 196.96654
4306 Au 0 LAT Au 0 0.000 196.96654
4307 Au 0 LAT Au 0 0.000 196.96654
4308 Au 0 LAT Au 0 0.000 196.96654
4309 Au 0 LAT Au 0 0.000 196.96654
4310 Au 0 LAT Au 0 0.000 196.96654
4311 Au 0 LAT Au 0 0.000 196.96654
4312 Au 0 LAT Au 0 0.000 196.96654
4313 Au 0 LAT Au 0 0.000 196.96654
4314 Au 0 LAT Au 0 0.000 196.96654
4315 Au 0 LAT Au 0 0.000 196.96654
4316 Au 0 LAT Au 0 0.000 196.96654
4317 Au 0 LAT Au 0 0.000 196.96654
4318 Au 0 LAT Au 0 0.000 196.96654
4319 Au 0 LAT Au 0 0.000 196.96654
4320 Au 0 LAT Au 0 0.000 196.96654
4321 Au 0 LAT Au 0 0.000 196.96654
4322 Au 0 LAT Au 0 0.000 196.96654
4323 Au 0 LAT Au 0 0.000 196.96654
4324 Au 0 LAT Au 0 0.000 196.96654
4325 Au 0 LAT Au 0 0.000 196.96654
4326 Au 0 LAT Au 0 0.000 196.96654
4327 Au 0 LAT Au 0 0.000 196.96654
4328 Au 0 LAT Au 0 0.000 196.96654
4329 Au 0 LAT Au 0 0.000 196.96654
4330 Au 0 LAT Au 0 0.000 196.96654
4331 Au 0 LAT Au 0 0.000 196.96654
4332 Au 0 LAT Au 0 0.000 196.96654
4333 Au 0 LAT Au 0 0.000 196.96654
4334 Au 0 LAT Au 0 0.000 196.96654
4335 Au 0 LAT Au 0 0.000 196.96654
4336 Au 0 LAT Au 0 0.000 196.96654
4337 Au 0 LAT Au 0 0.000 196.96654
4338 Au 0 LAT Au 0 0.000 196.96654
4339 Au 0 LAT Au 0 0.000 196.96654
4340 Au 0 LAT Au 0 0.000 196.96654
4341 Au 0 LAT Au 0 0.000 196.96654
4342 Au 0 LAT Au 0 0.000 196.96654
4343 Au 0 LAT Au 0 0.000 196.96654
4344 Au 0 LAT Au 0 0.000 196.96654
4345 Au 0 LAT Au 0 0.000 196.96654
4346 Au 0 LAT Au 0 0.000 196.96654
4347 Au 0 LAT Au 0 0.000 196.96654
4348 Au 0 LAT Au 0 0.000 196.96654
4349 Au 0 LAT Au 0 0.000 196.96654
4350 Au 0 LAT Au 0 0.000 196.96654
4351 Au 0 LAT Au 0 0.000 196.96654
4352 Au 0 LAT Au 0 0.000 196.96654
4353 Au 0 LAT Au 0 0.000 196.96654
4354 Au 0 LAT Au 0 0.000 196.96654
4355 Au 0 LAT Au 0 0.000 196.96654
4356 Au 0 LAT Au 0 0.000 196.96654
4357 Au 0 LAT Au 0 0.000 196.96654
4358 Au 0 LAT Au 0 0.000 196.96654
4359 Au 0 LAT Au 0 0.000 196.96654
4360 Au 0 LAT Au 0 0.000 196.96654
4361 Au 0 LAT Au 0 0.000 196.96654
4362 Au 0 LAT Au 0 0.000 196.96654
4363 Au 0 LAT Au 0 0.000 196.96654
4364 Au 0 LAT Au 0 0.000 196.96654
4365 Au 0 LAT Au 0 0.000 196.96654
4366 Au 0 LAT Au 0 0.000 196.96654
4367 Au 0 LAT Au 0 0.000 196.96654
4368 Au 0 LAT Au 0 0.000 196.96654
4369 Au 0 LAT Au 0 0.000 196.96654
4370 Au 0 LAT Au 0 0.000 196.96654
4371 Au 0 LAT Au 0 0.000 196.96654
4372 Au 0 LAT Au 0 0.000 196.96654
4373 Au 0 LAT Au 0 0.000 196.96654
4374 Au 0 LAT Au 0 0.000 196.96654
4375 Au 0 LAT Au 0 0.000 196.96654
4376 Au 0 LAT Au 0 0.000 196.96654
4377 Au 0 LAT Au 0 0.000 196.96654
4378 Au 0 LAT Au 0 0.000 196.96654
4379 Au 0 LAT Au 0 0.000 196.96654
4380 Au 0 LAT Au 0 0.000 196.96654
4381 Au 0 LAT Au 0 0.000 196.96654
4382 Au 0 LAT Au 0 0.000 196.96654
4383 Au 0 LAT Au 0 0.000 196.96654
4384 Au 0 LAT Au 0 0.000 196.96654
4385 Au 0 LAT Au 0 0.000 196.96654
4386 Au 0 LAT Au 0 0.000 196.96654
4387 Au 0 LAT Au 0 0.000 196.96654
4388 Au 0 LAT Au 0 0.000 196.96654
4389 Au 0 LAT Au 0 0.000 196.96654
4390 Au 0 LAT Au 0 0.000 196.96654
4391 Au 0 LAT Au 0 0.000 196.96654
4392 Au 0 LAT Au 0 0.000 196.96654
4393 Au 0 LAT Au 0 0.000 196.96654
4394 Au 0 LAT Au 0 0.000 196.96654
4395 Au 0 LAT Au 0 0.000 196.96654
4396 Au 0 LAT Au 0 0.000 196.96654
4397 Au 0 LAT Au 0 0.000 196.96654
4398 Au 0 LAT Au 0 0.000 196.96654
4399 Au 0 LAT Au 0 0.000 196.96654
4400 Au 0 LAT Au 0 0.000 196.96654
4401 Au 0 LAT Au 0 0.000 196.96654
4402 Au 0 LAT Au 0 0.000 196.96654
4403 Au 0 LAT Au 0 0.000 196.96654
4404 Au 0 LAT Au 0 0.000 196.96654
4405 Au 0 LAT Au 0 0.000 196.96654
4406 Au 0 LAT Au 0 0.000 196.96654
4407 Au 0 LAT Au 0 0.000 196.96654
4408 Au 0 LAT Au 0 0.000 196.96654
4409 Au 0 LAT Au 0 0.000 196.96654
4410 Au 0 LAT Au 0 0.000 196.96654
4411 Au 0 LAT Au 0 0.000 196.96654
4412 Au 0 LAT Au 0 0.000 196.96654
4413 Au 0 LAT Au 0 0.000 196.96654
4414 Au 0 LAT Au 0 0.000 196.96654
4415 Au 0 LAT Au 0 0.000 196.96654
4416 Au 0 LAT Au 0 0.000 196.96654
4417 Au 0 LAT Au 0 0.000 196.96654
4418 Au 0 LAT Au 0 0.000 196.96654
4419 Au 0 LAT Au 0 0.000 196.96654
4420 Au 0 LAT Au 0 0.000 196.96654
4421 Au 0 LAT Au 0 0.000 196.96654
4422 Au 0 LAT Au 0 0.000 196.96654
4423 Au 0 LAT Au 0 0.000 196.96654
4424 Au 0 LAT Au 0 0.000 196.96654
4425 Au 0 LAT Au 0 0.000 196.96654
4426 Au 0 LAT Au 0 0.000 196.96654
4427 Au 0 LAT Au 0 0.000 196.96654
4428 Au 0 LAT Au 0 0.000 196.96654
4429 Au 0 LAT Au 0 0.000 196.96654
4430 Au 0 LAT Au 0 0.000 196.96654
4431 Au 0 LAT Au 0 0.000 196.96654
4432 Au 0 LAT Au 0 0.000 196.96654
4433 Au 0 LAT Au 0 0.000 196.96654
4434 Au 0 LAT Au 0 0.000 196.96654
4435 Au 0 LAT Au 0 0.000 196.96654
4436 Au 0 LAT Au 0 0.000 196.96654
4437 Au 0 LAT Au 0 0.000 196.96654
4438 Au 0 LAT Au 0 0.000 196.96654
4439 Au 0 LAT Au 0 0.000 196.96654
4440 Au 0 LAT Au 0 0.000 196.96654
4441 Au 0 LAT Au 0 0.000 196.96654
4442 Au 0 LAT Au 0 0.000 196.96654
4443 Au 0 LAT Au 0 0.000 196.96654
4444 Au 0 LAT Au 0 0.000 196.96654
4445 Au 0 LAT Au 0 0.000 196.96654
4446 Au 0 LAT Au 0 0.000 196.96654
4447 Au 0 LAT Au 0 0.000 196.96654
4448 Au 0 LAT Au 0 0.000 196.96654
4449 Au 0 LAT Au 0 0.000 196.96654
4450 Au 0 LAT Au 0 0.000 196.96654
4451 Au 0 LAT Au 0 0.000 196.96654
4452 Au 0 LAT Au 0 0.000 196.96654
4453 Au 0 LAT Au 0 0.000 196.96654
4454 Au 0 LAT Au 0 0.000 196.96654
4455 Au 0 LAT Au 0 0.000 196.96654
4456 Au 0 LAT Au 0 0.000 196.96654
4457 Au 0 LAT Au 0 0.000 196.96654
4458 Au 0 LAT Au 0 0.000 196.96654
4459 Au 0 LAT Au 0 0.000 196.96654
4460 Au 0 LAT Au 0 0.000 196.96654
4461 Au 0 LAT Au 0 0.000 196.96654
4462 Au 0 LAT Au 0 0.000 196.96654
4463 Au 0 LAT Au 0 0.000 196.96654
4464 Au 0 LAT Au 0 0.000 196.96654
4465 Au 0 LAT Au 0 0.000 196.96654
4466 Au 0 LAT Au 0 0.000 196.96654
4467 Au 0 LAT Au 0 0.000 196.96654
4468 Au 0 LAT Au 0 0.000 196.96654
4469 Au 0 LAT Au 0 0.000 196.96654
4470 Au 0 LAT Au 0 0.000 196.96654
4471 Au 0 LAT Au 0 0.000 196.96654
4472 Au 0 LAT Au 0 0.000 196.96654
4473 Au 0 LAT Au 0 0.000 196.96654
4474 Au 0 LAT Au 0 0.000 196.96654
4475 Au 0 LAT Au 0 0.000 196.96654
4476 Au 0 LAT Au 0 0.000 196.96654
4477 Au 0 LAT Au 0 0.000 196.96654
4478 Au 0 LAT Au 0 0.000 196.96654
4479 Au 0 LAT Au 0 0.000 196.96654
4480 Au 0 LAT Au 0 0.000 196.96654
4481 Au 0 LAT Au 0 0.000 196.96654
4482 Au 0 LAT Au 0 0.000 196.96654
4483 Au 0 LAT Au 0 0.000 196.96654
4484 Au 0 LAT Au 0 0.000 196.96654
4485 Au 0 LAT Au 0 0.000 196.96654
4486 Au 0 LAT Au 0 0.000 196.96654
4487 Au 0 LAT Au 0 0.000 196.96654
4488 Au 0 LAT Au 0 0.000 196.96654
4489 Au 0 LAT Au 0 0.000 196.96654
4490 Au 0 LAT Au 0 0.000 196.96654
4491 Au 0 LAT Au 0 0.000 196.96654
4492 Au 0 LAT Au 0 0.000 196.96654
4493 Au 0 LAT Au 0 0.000 196.96654
4494 Au 0 LAT Au 0 0.000 196.96654
4495 Au 0 LAT Au 0 0.000 196.96654
4496 Au 0 LAT Au 0 0.000 196.96654
4497 Au 0 LAT Au 0 0.000 196.96654
4498 Au 0 LAT Au 0 0.000 196.96654
4499 Au 0 LAT Au 0 0.000 196.96654
4500 Au 0 LAT Au 0 0.000 196.96654
4501 Au 0 LAT Au 0 0.000 196.96654
4502 Au 0 LAT Au 0 0.000 196.96654
4503 Au 0 LAT Au 0 0.000 196.96654
4504 Au 0 LAT Au 0 0.000 196.96654
4505 Au 0 LAT Au 0 0.000 196.96654
4506 Au 0 LAT Au 0 0.000 196.96654
4507 Au 0 LAT Au 0 0.000 196.96654
4508 Au 0 LAT Au 0 0.000 196.96654
4509 Au 0 LAT Au 0 0.000 196.96654
4510 Au 0 LAT Au 0 0.000 196.96654
4511 Au 0 LAT Au 0 0.000 196.96654
4512 Au 0 LAT Au 0 0.000 196.96654
4513 Au 0 LAT Au 0 0.000 196.96654
4514 Au 0 LAT Au 0 0.000 196.96654
4515 Au 0 LAT Au 0 0.000 196.96654
4516 Au 0 LAT Au 0 0.000 196.96654
4517 Au 0 LAT Au 0 0.000 196.96654
4518 Au 0 LAT Au 0 0.000 196.96654
4519 Au 0 LAT Au 0 0.000 196.96654
4520 Au 0 LAT Au 0 0.000 196.96654
4521 Au 0 LAT Au 0 0.000 196.96654
4522 Au 0 LAT Au 0 0.000 196.96654
4523 Au 0 LAT Au 0 0.000 196.96654
4524 Au 0 LAT Au 0 0.000 196.96654
4525 Au 0 LAT Au 0 0.000 196.96654
4526 Au 0 LAT Au 0 0.000 196.96654
4527 Au 0 LAT Au 0 0.000 196.96654
4528 Au 0 LAT Au 0 0.000 196.96654
4529 Au 0 LAT Au 0 0.000 196.96654
4530 Au 0 LAT Au 0 0.000 196.96654
4531 Au 0 LAT Au 0 0.000 196.96654
4532 Au 0 LAT Au 0 0.000 196.96654
4533 Au 0 LAT Au 0 0.000 196.96654
4534 Au 0 LAT Au 0 0.000 196.96654
4535 Au 0 LAT Au 0 0.000 196.96654
4536 Au 0 LAT Au 0 0.000 196.96654
4537 Au 0 LAT Au 0 0.000 196.96654
4538 Au 0 LAT Au 0 0.000 196.96654
4539 Au 0 LAT Au 0 0.000 196.96654
4540 Au 0 LAT Au 0 0.000 196.96654
4541 Au 0 LAT Au 0 0.000 196.96654
4542 Au 0 LAT Au 0 0.000 196.96654
4543 Au 0 LAT Au 0 0.000 196.96654
4544 Au 0 LAT Au 0 0.000 196.96654
4545 Au 0 LAT Au 0 0.000 196.96654
4546 Au 0 LAT Au 0 0.000 196.96654
4547 Au 0 LAT Au 0 0.000 196.96654
4548 Au 0 LAT Au 0 0.000 196.96654
4549 Au 0 LAT Au 0 0.000 196.96654
4550 Au 0 LAT Au 0 0.000 196.96654
4551 Au 0 LAT Au 0 0.000 196.96654
4552 Au 0 LAT Au 0 0.000 196.96654
4553 Au 0 LAT Au 0 0.000 196.96654
4554 Au 0 LAT Au 0 0.000 196.96654
4555 Au 0 LAT Au 0 0.000 196.96654
4556 Au 0 LAT Au 0 0.000 196.96654
4557 Au 0 LAT Au 0 0.000 196.96654
4558 Au 0 LAT Au 0 0.000 196.96654
4559 Au 0 LAT Au 0 0.000 196.96654
4560 Au 0 LAT Au 0 0.000 196.96654
4561 Au 0 LAT Au 0 0.000 196.96654
4562 Au 0 LAT Au 0 0.000 196.96654
4563 Au 0 LAT Au 0 0.000 196.96654
4564 Au 0 LAT Au 0 0.000 196.96654
4565 Au 0 LAT Au 0 0.000 196.96654
4566 Au 0 LAT Au 0 0.000 196.96654
4567 Au 0 LAT Au 0 0.000 196.96654
4568 Au 0 LAT Au 0 0.000 196.96654
4569 Au 0 LAT Au 0 0.000 196.96654
4570 Au 0 LAT Au 0 0.000 196.96654
4571 Au 0 LAT Au 0 0.000 196.96654
4572 Au 0 LAT Au 0 0.000 196.96654
4573 Au 0 LAT Au 0 0.000 196.96654
4574 Au 0 LAT Au 0 0.000 196.96654
4575 Au 0 LAT Au 0 0.000 196.96654
4576 Au 0 LAT Au 0 0.000 196.96654
4577 Au 0 LAT Au 0 0.000 196.96654
4578 Au 0 LAT Au 0 0.000 196.96654
4579 Au 0 LAT Au 0 0.000 196.96654
4580 Au 0 LAT Au 0 0.000 196.96654
4581 Au 0 LAT Au 0 0.000 196.96654
4582 Au 0 LAT Au 0 0.000 196.96654
4583 Au 0 LAT Au 0 0.000 196.96654
4584 Au 0 LAT Au 0 0.000 196.96654
4585 Au 0 LAT Au 0 0.000 196.96654
4586 Au 0 LAT Au 0 0.000 196.96654
4587 Au 0 LAT Au 0 0.000 196.96654
4588 Au 0 LAT Au 0 0.000 196.96654
4589 Au 0 LAT Au 0 0.000 196.96654
4590 Au 0 LAT Au 0 0.000 196.96654
4591 Au 0 LAT Au 0 0.000 196.96654
4592 Au 0 LAT Au 0 0.000 196.96654
4593 Au 0 LAT Au 0 0.000 196.96654
4594 Au 0 LAT Au 0 0.000 196.96654
4595 Au 0 LAT Au 0 0.000 196.96654
4596 Au 0 LAT Au 0 0.000 196.96654
4597 Au 0 LAT Au 0 0.000 196.96654
4598 Au 0 LAT Au 0 0.000 196.96654
4599 Au 0 LAT Au 0 0.000 196.96654
4600 Au 0 LAT Au 0 0.000 196.96654
4601 Au 0 LAT Au 0 0.000 196.96654
4602 Au 0 LAT Au 0 0.000 196.96654
4603 Au 0 LAT Au 0 0.000 196.96654
4604 Au 0 LAT Au 0 0.000 196.96654
4605 Au 0 LAT Au 0 0.000 196.96654
4606 Au 0 LAT Au 0 0.000 196.96654
4607 Au 0 LAT Au 0 0.000 196.96654
4608 Au 0 LAT Au 0 0.000 196.96654
4609 Au 0 LAT Au 0 0.000 196.96654
4610 Au 0 LAT Au 0 0.000 196.96654
4611 Au 0 LAT Au 0 0.000 196.96654
4612 Au 0 LAT Au 0 0.000 196.96654
4613 Au 0 LAT Au 0 0.000 196.96654
4614 Au 0 LAT Au 0 0.000 196.96654
4615 Au 0 LAT Au 0 0.000 196.96654
4616 Au 0 LAT Au 0 0.000 196.96654
4617 Au 0 LAT Au 0 0.000 196.96654
4618 Au 0 LAT Au 0 0.000 196.96654
4619 Au 0 LAT Au 0 0.000 196.96654
4620 Au 0 LAT Au 0 0.000 196.96654
4621 Au 0 LAT Au 0 0.000 196.96654
4622 Au 0 LAT Au 0 0.000 196.96654
4623 Au 0 LAT Au 0 0.000 196.96654
4624 Au 0 LAT Au 0 0.000 196.96654
4625 Au 0 LAT Au 0 0.000 196.96654
4626 Au 0 LAT Au 0 0.000 196.96654
4627 Au 0 LAT Au 0 0.000 196.96654
4628 Au 0 LAT Au 0 0.000 196.96654
4629 Au 0 LAT Au 0 0.000 196.96654
4630 Au 0 LAT Au 0 0.000 196.96654
4631 Au 0 LAT Au 0 0.000 196.96654
4632 Au 0 LAT Au 0 0.000 196.96654
4633 Au 0 LAT Au 0 0.000 196.96654
4634 Au 0 LAT Au 0 0.000 196.96654
4635 Au 0 LAT Au 0 0.000 196.96654
4636 Au 0 LAT Au 0 0.000 196.96654
4637 Au 0 LAT Au 0 0.000 196.96654
4638 Au 0 LAT Au 0 0.000 196.96654
4639 Au 0 LAT Au 0 0.000 196.96654
4640 Au 0 LAT Au 0 0.000 196.96654
4641 Au 0 LAT Au 0 0.000 196.96654
4642 Au 0 LAT Au 0 0.000 196.96654
4643 Au 0 LAT Au 0 0.000 196.96654
4644 Au 0 LAT Au 0 0.000 196.96654
4645 Au 0 LAT Au 0 0.000 196.96654
4646 Au 0 LAT Au 0 0.000 196.96654
4647 Au 0 LAT Au 0 0.000 196.96654
4648 Au 0 LAT Au 0 0.000 196.96654
4649 Au 0 LAT Au 0 0.000 196.96654
4650 Au 0 LAT Au 0 0.000 196.96654
4651 Au 0 LAT Au 0 0.000 196.96654
4652 Au 0 LAT Au 0 0.000 196.96654
4653 Au 0 LAT Au 0 0.000 196.96654
4654 Au 0 LAT Au 0 0.000 196.96654
4655 Au 0 LAT Au 0 0.000 196.96654
4656 Au 0 LAT Au 0 0.000 196.96654
4657 Au 0 LAT Au 0 0.000 196.96654
4658 Au 0 LAT Au 0 0.000 196.96654
4659 Au 0 LAT Au 0 0.000 196.96654
4660 Au 0 LAT Au 0 0.000 196.96654
4661 Au 0 LAT Au 0 0.000 196.96654
4662 Au 0 LAT Au 0 0.000 196.96654
4663 Au 0 LAT Au 0 0.000 196.96654
4664 Au 0 LAT Au 0 0.000 196.96654
4665 Au 0 LAT Au 0 0.000 196.96654
4666 Au 0 LAT Au 0 0.000 196.96654
4667 Au 0 LAT Au 0 0.000 196.96654
4668 Au 0 LAT Au 0 0.000 196.96654
4669 Au 0 LAT Au 0 0.000 196.96654
4670 Au 0 LAT Au 0 0.000 196.96654
4671 Au 0 LAT Au 0 0.000 196.96654
4672 Au 0 LAT Au 0 0.000 196.96654
4673 Au 0 LAT Au 0 0.000 196.96654
4674 Au 0 LAT Au 0 0.000 196.96654
4675 Au 0 LAT Au 0 0.000 196.96654
4676 Au 0 LAT Au 0 0.000 196.96654
4677 Au 0 LAT Au 0 0.000 196.96654
4678 Au 0 LAT Au 0 0.000 196.96654
4679 Au 0 LAT Au 0 0.000 196.96654
4680 Au 0 LAT Au 0 0.000 196.96654
4681 Au 0 LAT Au 0 0.000 196.96654
4682 Au 0 LAT Au 0 0.000 196.96654
4683 Au 0 LAT Au 0 0.000 196.96654
4684 Au 0 LAT Au 0 0.000 196.96654
4685 Au 0 LAT Au 0 0.000 196.96654
4686 Au 0 LAT Au 0 0.000 196.96654
4687 Au 0 LAT Au 0 0.000 196.96654
4688 Au 0 LAT Au 0 0.000 196.96654
4689 Au 0 LAT Au 0 0.000 196.96654
4690 Au 0 LAT Au 0 0.000 196.96654
4691 Au 0 LAT Au 0 0.000 196.96654
4692 Au 0 LAT Au 0 0.000 196.96654
4693 Au 0 LAT Au 0 0.000 196.96654
4694 Au 0 LAT Au 0 0.000 196.96654
4695 Au 0 LAT Au 0 0.000 196.96654
4696 Au 0 LAT Au 0 0.000 196.96654
4697 Au 0 LAT Au 0 0.000 196.96654
4698 Au 0 LAT Au 0 0.000 196.96654
4699 Au 0 LAT Au 0 0.000 196.96654
4700 Au 0 LAT Au 0 0.000 196.96654
4701 Au 0 LAT Au 0 0.000 196.96654
4702 Au 0 LAT Au 0 0.000 196.96654
4703 Au 0 LAT Au 0 0.000 196.96654
4704 Au 0 LAT Au 0 0.000 196.96654
4705 Au 0 LAT Au 0 0.000 196.96654
4706 Au 0 LAT Au 0 0.000 196.96654
4707 Au 0 LAT Au 0 0.000 196.96654
4708 Au 0 LAT Au 0 0.000 196.96654
4709 Au 0 LAT Au 0 0.000 196.96654
4710 Au 0 LAT Au 0 0.000 196.96654
4711 Au 0 LAT Au 0 0.000 196.96654
4712 Au 0 LAT Au 0 0.000 196.96654
4713 Au 0 LAT Au 0 0.000 196.96654
4714 Au 0 LAT Au 0 0.000 196.96654
4715 Au 0 LAT Au 0 0.000 196.96654
4716 Au 0 LAT Au 0 0.000 196.96654
4717 Au 0 LAT Au 0 0.000 196.96654
4718 Au 0 LAT Au 0 0.000 196.96654
4719 Au 0 LAT Au 0 0.000 196.96654
4720 Au 0 LAT Au 0 0.000 196.96654
4721 Au 0 LAT Au 0 0.000 196.96654
4722 Au 0 LAT Au 0 0.000 196.96654
4723 Au 0 LAT Au 0 0.000 196.96654
4724 Au 0 LAT Au 0 0.000 196.96654
4725 Au 0 LAT Au 0 0.000 196.96654
4726 Au 0 LAT Au 0 0.000 196.96654
4727 Au 0 LAT Au 0 0.000 196.96654
4728 Au 0 LAT Au 0 0.000 196.96654
4729 Au 0 LAT Au 0 0.000 196.96654
4730 Au 0 LAT Au 0 0.000 196.96654
4731 Au 0 LAT Au 0 0.000 196.96654
4732 Au 0 LAT Au 0 0.000 196.96654
4733 Au 0 LAT Au 0 0.000 196.96654
4734 Au 0 LAT Au 0 0.000 196.96654
4735 Au 0 LAT Au 0 0.000 196.96654
4736 Au 0 LAT Au 0 0.000 196.96654
4737 Au 0 LAT Au 0 0.000 196.96654
4738 Au 0 LAT Au 0 0.000 196.96654
4739 Au 0 LAT Au 0 0.000 196.96654
4740 Au 0 LAT Au 0 0.000 196.96654
4741 Au 0 LAT Au 0 0.000 196.96654
4742 Au 0 LAT Au 0 0.000 196.96654
4743 Au 0 LAT Au 0 0.000 196.96654
4744 Au 0 LAT Au 0 0.000 196.96654
4745 Au 0 LAT Au 0 0.000 196.96654
4746 Au 0 LAT Au 0 0.000 196.96654
4747 Au 0 LAT Au 0 0.000 196.96654
4748 Au 0 LAT Au 0 0.000 196.96654
4749 Au 0 LAT Au 0 0.000 196.96654
4750 Au 0 LAT Au 0 0.000 196.96654
4751 Au 0 LAT Au 0 0.000 196.96654
4752 Au 0 LAT Au 0 0.000 196.96654
4753 Au 0 LAT Au 0 0.000 196.96654
4754 Au 0 LAT Au 0 0.000 196.96654
4755 Au 0 LAT Au 0 0.000 196.96654
4756 Au 0 LAT Au 0 0.000 196.96654
4757 Au 0 LAT Au 0 0.000 196.96654
4758 Au 0 LAT Au 0 0.000 196.96654
4759 Au 0 LAT Au 0 0.000 196.96654
4760 Au 0 LAT Au 0 0.000 196.96654
4761 Au 0 LAT Au 0 0.000 196.96654
4762 Au 0 LAT Au 0 0.000 196.96654
4763 Au 0 LAT Au 0 0.000 196.96654
4764 Au 0 LAT Au 0 0.000 196.96654
4765 Au 0 LAT Au 0 0.000 196.96654
4766 Au 0 LAT Au 0 0.000 196.96654
4767 Au 0 LAT Au 0 0.000 196.96654
4768 Au 0 LAT Au 0 0.000 196.96654
4769 Au 0 LAT Au 0 0.000 196.96654
4770 Au 0 LAT Au 0 0.000 196.96654
4771 Au 0 LAT Au 0 0.000 196.96654
4772 Au 0 LAT Au 0 0.000 196.96654
4773 Au 0 LAT Au 0 0.000 196.96654
4774 Au 0 LAT Au 0 0.000 196.96654
4775 Au 0 LAT Au 0 0.000 196.96654
4776 Au 0 LAT Au 0 0.000 196.96654
4777 Au 0 LAT Au 0 0.000 196.96654
4778 Au 0 LAT Au 0 0.000 196.96654
4779 Au 0 LAT Au 0 0.000 196.96654
4780 Au 0 LAT Au 0 0.000 196.96654
4781 Au 0 LAT Au 0 0.000 196.96654
4782 Au 0 LAT Au 0 0.000 196.96654
4783 Au 0 LAT Au 0 0.000 196.96654
4784 Au 0 LAT Au 0 0.000 196.96654
4785 Au 0 LAT Au 0 0.000 196.96654
4786 Au 0 LAT Au 0 0.000 196.96654
4787 Au 0 LAT Au 0 0.000 196.96654
4788 Au 0 LAT Au 0 0.000 196.96654
4789 Au 0 LAT Au 0 0.000 196.96654
4790 Au 0 LAT Au 0 0.000 196.96654
4791 Au 0 LAT Au 0 0.000 196.96654
4792 Au 0 LAT Au 0 0.000 196.96654
4793 Au 0 LAT Au 0 0.000 196.96654
4794 Au 0 LAT Au 0 0.000 196.96654
4795 Au 0 LAT Au 0 0.000 196.96654
4796 Au 0 LAT Au 0 0.000 196.96654
4797 Au 0 LAT Au 0 0.000 196.96654
4798 Au 0 LAT Au 0 0.000 196.96654
4799 Au 0 LAT Au 0 0.000 196.96654
4800 Au 0 LAT Au 0 0.000 196.96654
4801 Au 0 LAT Au 0 0.000 196.96654
4802 Au 0 LAT Au 0 0.000 196.96654
4803 Au 0 LAT Au 0 0.000 196.96654
4804 Au 0 LAT Au 0 0.000 196.96654
4805 Au 0 LAT Au 0 0.000 196.96654
4806 Au 0 LAT Au 0 0.000 196.96654
4807 Au 0 LAT Au 0 0.000 196.96654
4808 Au 0 LAT Au 0 0.000 196.96654
4809 Au 0 LAT Au 0 0.000 196.96654
4810 Au 0 LAT Au 0 0.000 196.96654
4811 Au 0 LAT Au 0 0.000 196.96654
4812 Au 0 LAT Au 0 0.000 196.96654
4813 Au 0 LAT Au 0 0.000 196.96654
4814 Au 0 LAT Au 0 0.000 196.96654
4815 Au 0 LAT Au 0 0.000 196.96654
4816 Au 0 LAT Au 0 0.000 196.96654
4817 Au 0 LAT Au 0 0.000 196.96654
4818 Au 0 LAT Au 0 0.000 196.96654
4819 Au 0 LAT Au 0 0.000 196.96654
4820 Au 0 LAT Au 0 0.000 196.96654
4821 Au 0 LAT Au 0 0.000 196.96654
4822 Au 0 LAT Au 0 0.000 196.96654
4823 Au 0 LAT Au 0 0.000 196.96654
4824 Au 0 LAT Au 0 0.000 196.96654
4825 Au 0 LAT Au 0 0.000 196.96654
4826 Au 0 LAT Au 0 0.000 196.96654
4827 Au 0 LAT Au 0 0.000 196.96654
4828 Au 0 LAT Au 0 0.000 196.96654
4829 Au 0 LAT Au 0 0.000 196.96654
4830 Au 0 LAT Au 0 0.000 196.96654
4831 Au 0 LAT Au 0 0.000 196.96654
4832 Au 0 LAT Au 0 0.000 196.96654
4833 Au 0 LAT Au 0 0.000 196.96654
4834 Au 0 LAT Au 0 0.000 196.96654
4835 Au 0 LAT Au 0 0.000 196.96654
4836 Au 0 LAT Au 0 0.000 196.96654
4837 Au 0 LAT Au 0 0.000 196.96654
4838 Au 0 LAT Au 0 0.000 196.96654
4839 Au 0 LAT Au 0 0.000 196.96654
4840 Au 0 LAT Au 0 0.000 196.96654
4841 Au 0 LAT Au 0 0.000 196.96654
4842 Au 0 LAT Au 0 0.000 196.96654
4843 Au 0 LAT Au 0 0.000 196.96654
4844 Au 0 LAT Au 0 0.000 196.96654
4845 Au 0 LAT Au 0 0.000 196.96654
4846 Au 0 LAT Au 0 0.000 196.96654
4847 Au 0 LAT Au 0 0.000 196.96654
4848 Au 0 LAT Au 0 0.000 196.96654
4849 Au 0 LAT Au 0 0.000 196.96654
4850 Au 0 LAT Au 0 0.000 196.96654
4851 Au 0 LAT Au 0 0.000 196.96654
4852 Au 0 LAT Au 0 0.000 196.96654
4853 Au 0 LAT Au 0 0.000 196.96654
4854 Au 0 LAT Au 0 0.000 196.96654
4855 Au 0 LAT Au 0 0.000 196.96654
4856 Au 0 LAT Au 0 0.000 196.96654
4857 Au 0 LAT Au 0 0.000 196.96654
4858 Au 0 LAT Au 0 0.000 196.96654
4859 Au 0 LAT Au 0 0.000 196.96654
4860 Au 0 LAT Au 0 0.000 196.96654
4861 Au 0 LAT Au 0 0.000 196.96654
4862 Au 0 LAT Au 0 0.000 196.96654
4863 Au 0 LAT Au 0 0.000 196.96654
4864 Au 0 LAT Au 0 0.000 196.96654
4865 Au 0 LAT Au 0 0.000 196.96654
4866 Au 0 LAT Au 0 0.000 196.96654
4867 Au 0 LAT Au 0 0.000 196.96654
4868 Au 0 LAT Au 0 0.000 196.96654
4869 Au 0 LAT Au 0 0.000 196.96654
4870 Au 0 LAT Au 0 0.000 196.96654
4871 Au 0 LAT Au 0 0.000 196.96654
4872 Au 0 LAT Au 0 0.000 196.96654
4873 Au 0 LAT Au 0 0.000 196.96654
4874 Au 0 LAT Au 0 0.000 196.96654
4875 Au 0 LAT Au 0 0.000 196.96654
4876 Au 0 LAT Au 0 0.000 196.96654
4877 Au 0 LAT Au 0 0.000 196.96654
4878 Au 0 LAT Au 0 0.000 196.96654
4879 Au 0 LAT Au 0 0.000 196.96654
4880 Au 0 LAT Au 0 0.000 196.96654
4881 Au 0 LAT Au 0 0.000 196.96654
4882 Au 0 LAT Au 0 0.000 196.96654
4883 Au 0 LAT Au 0 0.000 196.96654
4884 Au 0 LAT Au 0 0.000 196.96654
4885 Au 0 LAT Au 0 0.000 196.96654
4886 Au 0 LAT Au 0 0.000 196.96654
4887 Au 0 LAT Au 0 0.000 196.96654
4888 Au 0 LAT Au 0 0.000 196.96654
4889 Au 0 LAT Au 0 0.000 196.96654
4890 Au 0 LAT Au 0 0.000 196.96654
4891 Au 0 LAT Au 0 0.000 196.96654
4892 Au 0 LAT Au 0 0.000 196.96654
4893 Au 0 LAT Au 0 0.000 196.96654
4894 Au 0 LAT Au 0 0.000 196.96654
4895 Au 0 LAT Au 0 0.000 196.96654
4896 Au 0 LAT Au 0 0.000 196.96654
4897 Au 0 LAT Au 0 0.000 196.96654
4898 Au 0 LAT Au 0 0.000 196.96654
4899 Au 0 LAT Au 0 0.000 196.96654
4900 Au 0 LAT Au 0 0.000 196.96654
4901 Au 0 LAT Au 0 0.000 196.96654
4902 Au 0 LAT Au 0 0.000 196.96654
4903 Au 0 LAT Au 0 0.000 196.96654
4904 Au 0 LAT Au 0 0.000 196.96654
4905 Au 0 LAT Au 0 0.000 196.96654
4906 Au 0 LAT Au 0 0.000 196.96654
4907 Au 0 LAT Au 0 0.000 196.96654
4908 Au 0 LAT Au 0 0.000 196.96654
4909 Au 0 LAT Au 0 0.000 196.96654
4910 Au 0 LAT Au 0 0.000 196.96654
4911 Au 0 LAT Au 0 0.000 196.96654
4912 Au 0 LAT Au 0 0.000 196.96654
4913 Au 0 LAT Au 0 0.000 196.96654
4914 Au 0 LAT Au 0 0.000 196.96654
4915 Au 0 LAT Au 0 0.000 196.96654
4916 Au 0 LAT Au 0 0.000 196.96654
4917 Au 0 LAT Au 0 0.000 196.96654
4918 Au 0 LAT Au 0 0.000 196.96654
4919 Au 0 LAT Au 0 0.000 196.96654
4920 Au 0 LAT Au 0 0.000 196.96654
4921 Au 0 LAT Au 0 0.000 196.96654
4922 Au 0 LAT Au 0 0.000 196.96654
4923 Au 0 LAT Au 0 0.000 196.96654
4924 Au 0 LAT Au 0 0.000 196.96654
4925 Au 0 LAT Au 0 0.000 196.96654
4926 Au 0 LAT Au 0 0.000 196.96654
4927 Au 0 LAT Au 0 0.000 196.96654
4928 Au 0 LAT Au 0 0.000 196.96654
4929 Au 0 LAT Au 0 0.000 196.96654
4930 Au 0 LAT Au 0 0.000 196.96654
4931 Au 0 LAT Au 0 0.000 196.96654
4932 Au 0 LAT Au 0 0.000 196.96654
4933 Au 0 LAT Au 0 0.000 196.96654
4934 Au 0 LAT Au 0 0.000 196.96654
4935 Au 0 LAT Au 0 0.000 196.96654
4936 Au 0 LAT Au 0 0.000 196.96654
4937 Au 0 LAT Au 0 0.000 196.96654
4938 Au 0 LAT Au 0 0.000 196.96654
4939 Au 0 LAT Au 0 0.000 196.96654
4940 Au 0 LAT Au 0 0.000 196.96654
4941 Au 0 LAT Au 0 0.000 196.96654
4942 Au 0 LAT Au 0 0.000 196.96654
4943 Au 0 LAT Au 0 0.000 196.96654
4944 Au 0 LAT Au 0 0.000 196.96654
4945 Au 0 LAT Au 0 0.000 196.96654
4946 Au 0 LAT Au 0 0.000 196.96654
4947 Au 0 LAT Au 0 0.000 196.96654
4948 Au 0 LAT Au 0 0.000 196.96654
4949 Au 0 LAT Au 0 0.000 196.96654
4950 Au 0 LAT Au 0 0.000 196.96654
4951 Au 0 LAT Au 0 0.000 196.96654
4952 Au 0 LAT Au 0 0.000 196.96654
4953 Au 0 LAT Au 0 0.000 196.96654
4954 Au 0 LAT Au 0 0.000 196.96654
4955 Au 0 LAT Au 0 0.000 196.96654
4956 Au 0 LAT Au 0 0.000 196.96654
4957 Au 0 LAT Au 0 0.000 196.96654
4958 Au 0 LAT Au 0 0.000 196.96654
4959 Au 0 LAT Au 0 0.000 196.96654
4960 Au 0 LAT Au 0 0.000 196.96654
4961 Au 0 LAT Au 0 0.000 196.96654
4962 Au 0 LAT Au 0 0.000 196.96654
4963 Au 0 LAT Au 0 0.000 196.96654
4964 Au 0 LAT Au 0 0.000 196.96654
4965 Au 0 LAT Au 0 0.000 196.96654
4966 Au 0 LAT Au 0 0.000 196.96654
4967 Au 0 LAT Au 0 0.000 196.96654
4968 Au 0 LAT Au 0 0.000 196.96654
4969 Au 0 LAT Au 0 0.000 196.96654
4970 Au 0 LAT Au 0 0.000 196.96654
4971 Au 0 LAT Au 0 0.000 196.96654
4972 Au 0 LAT Au 0 0.000 196.96654
4973 Au 0 LAT Au 0 0.000 196.96654
4974 Au 0 LAT Au 0 0.000 196.96654
4975 Au 0 LAT Au 0 0.000 196.96654
4976 Au 0 LAT Au 0 0.000 196.96654
4977 Au 0 LAT Au 0 0.000 196.96654
4978 Au 0 LAT Au 0 0.000 196.96654
4979 Au 0 LAT Au 0 0.000 196.96654
4980 Au 0 LAT Au 0 0.000 196.96654
4981 Au 0 LAT Au 0 0.000 196.96654
4982 Au 0 LAT Au 0 0.000 196.96654
4983 Au 0 LAT Au 0 0.000 196.96654
4984 Au 0 LAT Au 0 0.000 196.96654
4985 Au 0 LAT Au 0 0.000 196.96654
4986 Au 0 LAT Au 0 0.000 196.96654
4987 Au 0 LAT Au 0 0.000 196.96654
4988 Au 0 LAT Au 0 0.000 196.96654
4989 Au 0 LAT Au 0 0.000 196.96654
4990 Au 0 LAT Au 0 0.000 196.96654
4991 Au 0 LAT Au 0 0.000 196.96654
4992 Au 0 LAT Au 0 0.000 196.96654
4993 Au 0 LAT Au 0 0.000 196.96654
4994 Au 0 LAT Au 0 0.000 196.96654
4995 Au 0 LAT Au 0 0.000 196.96654
4996 Au 0 LAT Au 0 0.000 196.96654
4997 Au 0 LAT Au 0 0.000 196.96654
4998 Au 0 LAT Au 0 0.000 196.96654
4999 Au 0 LAT Au 0 0.000 196.96654
5000 Au 0 LAT Au 0 0.000 196.96654
5001 Au 0 LAT Au 0 0.000 196.96654
5002 Au 0 LAT Au 0 0.000 196.96654
5003 Au 0 LAT Au 0 0.000 196.96654
5004 Au 0 LAT Au 0 0.000 196.96654
5005 Au 0 LAT Au 0 0.000 196.96654
5006 Au 0 LAT Au 0 0.000 196.96654
5007 Au 0 LAT Au 0 0.000 196.96654
5008 Au 0 LAT Au 0 0.000 196.96654
5009 Au 0 LAT Au 0 0.000 196.96654
5010 Au 0 LAT Au 0 0.000 196.96654
5011 Au 0 LAT Au 0 0.000 196.96654
5012 Au 0 LAT Au 0 0.000 196.96654
5013 Au 0 LAT Au 0 0.000 196.96654
5014 Au 0 LAT Au 0 0.000 196.96654
5015 Au 0 LAT Au 0 0.000 196.96654
5016 Au 0 LAT Au 0 0.000 196.96654
5017 Au 0 LAT Au 0 0.000 196.96654
5018 Au 0 LAT Au 0 0.000 196.96654
5019 Au 0 LAT Au 0 0.000 196.96654
5020 Au 0 LAT Au 0 0.000 196.96654
5021 Au 0 LAT Au 0 0.000 196.96654
5022 Au 0 LAT Au 0 0.000 196.96654
5023 Au 0 LAT Au 0 0.000 196.96654
5024 Au 0 LAT Au 0 0.000 196.96654
5025 Au 0 LAT Au 0 0.000 196.96654
5026 Au 0 LAT Au 0 0.000 196.96654
5027 Au 0 LAT Au 0 0.000 196.96654
5028 Au 0 LAT Au 0 0.000 196.96654
5029 Au 0 LAT Au 0 0.000 196.96654
5030 Au 0 LAT Au 0 0.000 196.96654
5031 Au 0 LAT Au 0 0.000 196.96654
5032 Au 0 LAT Au 0 0.000 196.96654
5033 Au 0 LAT Au 0 0.000 196.96654
5034 Au 0 LAT Au 0 0.000 196.96654
5035 Au 0 LAT Au 0 0.000 196.96654
5036 Au 0 LAT Au 0 0.000 196.96654
5037 Au 0 LAT Au 0 0.000 196.96654
5038 Au 0 LAT Au 0 0.000 196.96654
5039 Au 0 LAT Au 0 0.000 196.96654
5040 Au 0 LAT Au 0 0.000 196.96654
5041 Au 0 LAT Au 0 0.000 196.96654
5042 Au 0 LAT Au 0 0.000 196.96654
5043 Au 0 LAT Au 0 0.000 196.96654
5044 Au 0 LAT Au 0 0.000 196.96654
5045 Au 0 LAT Au 0 0.000 196.96654
5046 Au 0 LAT Au 0 0.000 196.96654
5047 Au 0 LAT Au 0 0.000 196.96654
5048 Au 0 LAT Au 0 0.000 196.96654
5049 Au 0 LAT Au 0 0.000 196.96654
5050 Au 0 LAT Au 0 0.000 196.96654
5051 Au 0 LAT Au 0 0.000 196.96654
5052 Au 0 LAT Au 0 0.000 196.96654
5053 Au 0 LAT Au 0 0.000 196.96654
5054 Au 0 LAT Au 0 0.000 196.96654
5055 Au 0 LAT Au 0 0.000 196.96654
5056 Au 0 LAT Au 0 0.000 196.96654
5057 Au 0 LAT Au 0 0.000 196.96654
5058 Au 0 LAT Au 0 0.000 196.96654
5059 Au 0 LAT Au 0 0.000 196.96654
5060 Au 0 LAT Au 0 0.000 196.96654
5061 Au 0 LAT Au 0 0.000 196.96654
5062 Au 0 LAT Au 0 0.000 196.96654
5063 Au 0 LAT Au 0 0.000 196.96654
5064 Au 0 LAT Au 0 0.000 196.96654
5065 Au 0 LAT Au 0 0.000 196.96654
5066 Au 0 LAT Au 0 0.000 196.96654
5067 Au 0 LAT Au 0 0.000 196.96654
5068 Au 0 LAT Au 0 0.000 196.96654
5069 Au 0 LAT Au 0 0.000 196.96654
5070 Au 0 LAT Au 0 0.000 196.96654
5071 Au 0 LAT Au 0 0.000 196.96654
5072 Au 0 LAT Au 0 0.000 196.96654
5073 Au 0 LAT Au 0 0.000 196.96654
5074 Au 0 LAT Au 0 0.000 196.96654
5075 Au 0 LAT Au 0 0.000 196.96654
5076 Au 0 LAT Au 0 0.000 196.96654
5077 Au 0 LAT Au 0 0.000 196.96654
5078 Au 0 LAT Au 0 0.000 196.96654
5079 Au 0 LAT Au 0 0.000 196.96654
5080 Au 0 LAT Au 0 0.000 196.96654
5081 Au 0 LAT Au 0 0.000 196.96654
5082 Au 0 LAT Au 0 0.000 196.96654
5083 Au 0 LAT Au 0 0.000 196.96654
5084 Au 0 LAT Au 0 0.000 196.96654
5085 Au 0 LAT Au 0 0.000 196.96654
5086 Au 0 LAT Au 0 0.000 196.96654
5087 Au 0 LAT Au 0 0.000 196.96654
5088 Au 0 LAT Au 0 0.000 196.96654
5089 Au 0 LAT Au 0 0.000 196.96654
5090 Au 0 LAT Au 0 0.000 196.96654
5091 Au 0 LAT Au 0 0.000 196.96654
5092 Au 0 LAT Au 0 0.000 196.96654
5093 Au 0 LAT Au 0 0.000 196.96654
5094 Au 0 LAT Au 0 0.000 196.96654
5095 Au 0 LAT Au 0 0.000 196.96654
5096 Au 0 LAT Au 0 0.000 196.96654
5097 Au 0 LAT Au 0 0.000 196.96654
5098 Au 0 LAT Au 0 0.000 196.96654
5099 Au 0 LAT Au 0 0.000 196.96654
5100 Au 0 LAT Au 0 0.000 196.96654
5101 Au 0 LAT Au 0 0.000 196.96654
5102 Au 0 LAT Au 0 0.000 196.96654
5103 Au 0 LAT Au 0 0.000 196.96654
5104 Au 0 LAT Au 0 0.000 196.96654
5105 Au 0 LAT Au 0 0.000 196.96654
5106 Au 0 LAT Au 0 0.000 196.96654
5107 Au 0 LAT Au 0 0.000 196.96654
5108 Au 0 LAT Au 0 0.000 196.96654
5109 Au 0 LAT Au 0 0.000 196.96654
5110 Au 0 LAT Au 0 0.000 196.96654
5111 Au 0 LAT Au 0 0.000 196.96654
5112 Au 0 LAT Au 0 0.000 196.96654
5113 Au 0 LAT Au 0 0.000 196.96654
5114 Au 0 LAT Au 0 0.000 196.96654
5115 Au 0 LAT Au 0 0.000 196.96654
5116 Au 0 LAT Au 0 0.000 196.96654
5117 Au 0 LAT Au 0 0.000 196.96654
5118 Au 0 LAT Au 0 0.000 196.96654
5119 Au 0 LAT Au 0 0.000 196.96654
5120 Au 0 LAT Au 0 0.000 196.96654
5121 Au 0 LAT Au 0 0.000 196.96654
5122 Au 0 LAT Au 0 0.000 196.96654
5123 Au 0 LAT Au 0 0.000 196.96654
5124 Au 0 LAT Au 0 0.000 196.96654
5125 Au 0 LAT Au 0 0.000 196.96654
5126 Au 0 LAT Au 0 0.000 196.96654
5127 Au 0 LAT Au 0 0.000 196.96654
5128 Au 0 LAT Au 0 0.000 196.96654
5129 Au 0 LAT Au 0 0.000 196.96654
5130 Au 0 LAT Au 0 0.000 196.96654
5131 Au 0 LAT Au 0 0.000 196.96654
5132 Au 0 LAT Au 0 0.000 196.96654
5133 Au 0 LAT Au 0 0.000 196.96654
5134 Au 0 LAT Au 0 0.000 196.96654
5135 Au 0 LAT Au 0 0.000 196.96654
5136 Au 0 LAT Au 0 0.000 196.96654
5137 Au 0 LAT Au 0 0.000 196.96654
5138 Au 0 LAT Au 0 0.000 196.96654
5139 Au 0 LAT Au 0 0.000 196.96654
5140 Au 0 LAT Au 0 0.000 196.96654
5141 Au 0 LAT Au 0 0.000 196.96654
5142 Au 0 LAT Au 0 0.000 196.96654
5143 Au 0 LAT Au 0 0.000 196.96654
5144 Au 0 LAT Au 0 0.000 196.96654
5145 Au 0 LAT Au 0 0.000 196.96654
5146 Au 0 LAT Au 0 0.000 196.96654
5147 Au 0 LAT Au 0 0.000 196.96654
5148 Au 0 LAT Au 0 0.000 196.96654
5149 Au 0 LAT Au 0 0.000 196.96654
5150 Au 0 LAT Au 0 0.000 196.96654
5151 Au 0 LAT Au 0 0.000 196.96654
5152 Au 0 LAT Au 0 0.000 196.96654
5153 Au 0 LAT Au 0 0.000 196.96654
5154 Au 0 LAT Au 0 0.000 196.96654
5155 Au 0 LAT Au 0 0.000 196.96654
5156 Au 0 LAT Au 0 0.000 196.96654
5157 Au 0 LAT Au 0 0.000 196.96654
5158 Au 0 LAT Au 0 0.000 196.96654
5159 Au 0 LAT Au 0 0.000 196.96654
5160 Au 0 LAT Au 0 0.000 196.96654
5161 Au 0 LAT Au 0 0.000 196.96654
5162 Au 0 LAT Au 0 0.000 196.96654
5163 Au 0 LAT Au 0 0.000 196.96654
5164 Au 0 LAT Au 0 0.000 196.96654
5165 Au 0 LAT Au 0 0.000 196.96654
5166 Au 0 LAT Au 0 0.000 196.96654
5167 Au 0 LAT Au 0 0.000 196.96654
5168 Au 0 LAT Au 0 0.000 196.96654
5169 Au 0 LAT Au 0 0.000 196.96654
5170 Au 0 LAT Au 0 0.000 196.96654
5171 Au 0 LAT Au 0 0.000 196.96654
5172 Au 0 LAT Au 0 0.000 196.96654
5173 Au 0 LAT Au 0 0.000 196.96654
5174 Au 0 LAT Au 0 0.000 196.96654
5175 Au 0 LAT Au 0 0.000 196.96654
5176 Au 0 LAT Au 0 0.000 196.96654
5177 Au 0 LAT Au 0 0.000 196.96654
5178 Au 0 LAT Au 0 0.000 196.96654
5179 Au 0 LAT Au 0 0.000 196.96654
5180 Au 0 LAT Au 0 0.000 196.96654
5181 Au 0 LAT Au 0 0.000 196.96654
5182 Au 0 LAT Au 0 0.000 196.96654
5183 Au 0 LAT Au 0 0.000 196.96654
5184 Au 0 LAT Au 0 0.000 196.96654
5185 Au 0 LAT Au 0 0.000 196.96654
5186 Au 0 LAT Au 0 0.000 196.96654
5187 Au 0 LAT Au 0 0.000 196.96654
5188 Au 0 LAT Au 0 0.000 196.96654
5189 Au 0 LAT Au 0 0.000 196.96654
5190 Au 0 LAT Au 0 0.000 196.96654
5191 Au 0 LAT Au 0 0.000 196.96654
5192 Au 0 LAT Au 0 0.000 196.96654
5193 Au 0 LAT Au 0 0.000 196.96654
5194 Au 0 LAT Au 0 0.000 196.96654
5195 Au 0 LAT Au 0 0.000 196.96654
5196 Au 0 LAT Au 0 0.000 196.96654
5197 Au 0 LAT Au 0 0.000 196.96654
5198 Au 0 LAT Au 0 0.000 196.96654
5199 Au 0 LAT Au 0 0.000 196.96654
5200 Au 0 LAT Au 0 0.000 196.96654
5201 Au 0 LAT Au 0 0.000 196.96654
5202 Au 0 LAT Au 0 0.000 196.96654
5203 Au 0 LAT Au 0 0.000 196.96654
5204 Au 0 LAT Au 0 0.000 196.96654
5205 Au 0 LAT Au 0 0.000 196.96654
5206 Au 0 LAT Au 0 0.000 196.96654
5207 Au 0 LAT Au 0 0.000 196.96654
5208 Au 0 LAT Au 0 0.000 196.96654
5209 Au 0 LAT Au 0 0.000 196.96654
5210 Au 0 LAT Au 0 0.000 196.96654
5211 Au 0 LAT Au 0 0.000 196.96654
5212 Au 0 LAT Au 0 0.000 196.96654
5213 Au 0 LAT Au 0 0.000 196.96654
5214 Au 0 LAT Au 0 0.000 196.96654
5215 Au 0 LAT Au 0 0.000 196.96654
5216 Au 0 LAT Au 0 0.000 196.96654
5217 Au 0 LAT Au 0 0.000 196.96654
5218 Au 0 LAT Au 0 0.000 196.96654
5219 Au 0 LAT Au 0 0.000 196.96654
5220 Au 0 LAT Au 0 0.000 196.96654
5221 Au 0 LAT Au 0 0.000 196.96654
5222 Au 0 LAT Au 0 0.000 196.96654
5223 Au 0 LAT Au 0 0.000 196.96654
5224 Au 0 LAT Au 0 0.000 196.96654
5225 Au 0 LAT Au 0 0.000 196.96654
5226 Au 0 LAT Au 0 0.000 196.96654
5227 Au 0 LAT Au 0 0.000 196.96654
5228 Au 0 LAT Au 0 0.000 196.96654
5229 Au 0 LAT Au 0 0.000 196.96654
5230 Au 0 LAT Au 0 0.000 196.96654
5231 Au 0 LAT Au 0 0.000 196.96654
5232 Au 0 LAT Au 0 0.000 196.96654
5233 Au 0 LAT Au 0 0.000 196.96654
5234 Au 0 LAT Au 0 0.000 196.96654
5235 Au 0 LAT Au 0 0.000 196.96654
5236 Au 0 LAT Au 0 0.000 196.96654
5237 Au 0 LAT Au 0 0.000 196.96654
5238 Au 0 LAT Au 0 0.000 196.96654
5239 Au 0 LAT Au 0 0.000 196.96654
5240 Au 0 LAT Au 0 0.000 196.96654
5241 Au 0 LAT Au 0 0.000 196.96654
5242 Au 0 LAT Au 0 0.000 196.96654
5243 Au 0 LAT Au 0 0.000 196.96654
5244 Au 0 LAT Au 0 0.000 196.96654
5245 Au 0 LAT Au 0 0.000 196.96654
5246 Au 0 LAT Au 0 0.000 196.96654
5247 Au 0 LAT Au 0 0.000 196.96654
5248 Au 0 LAT Au 0 0.000 196.96654
5249 Au 0 LAT Au 0 0.000 196.96654
5250 Au 0 LAT Au 0 0.000 196.96654
5251 Au 0 LAT Au 0 0.000 196.96654
5252 Au 0 LAT Au 0 0.000 196.96654
5253 Au 0 LAT Au 0 0.000 196.96654
5254 Au 0 LAT Au 0 0.000 196.96654
5255 Au 0 LAT Au 0 0.000 196.96654
5256 Au 0 LAT Au 0 0.000 196.96654
5257 Au 0 LAT Au 0 0.000 196.96654
5258 Au 0 LAT Au 0 0.000 196.96654
5259 Au 0 LAT Au 0 0.000 196.96654
5260 Au 0 LAT Au 0 0.000 196.96654
5261 Au 0 LAT Au 0 0.000 196.96654
5262 Au 0 LAT Au 0 0.000 196.96654
5263 Au 0 LAT Au 0 0.000 196.96654
5264 Au 0 LAT Au 0 0.000 196.96654
5265 Au 0 LAT Au 0 0.000 196.96654
5266 Au 0 LAT Au 0 0.000 196.96654
5267 Au 0 LAT Au 0 0.000 196.96654
5268 Au 0 LAT Au 0 0.000 196.96654
5269 Au 0 LAT Au 0 0.000 196.96654
5270 Au 0 LAT Au 0 0.000 196.96654
5271 Au 0 LAT Au 0 0.000 196.96654
5272 Au 0 LAT Au 0 0.000 196.96654
5273 Au 0 LAT Au 0 0.000 196.96654
5274 Au 0 LAT Au 0 0.000 196.96654
5275 Au 0 LAT Au 0 0.000 196.96654
5276 Au 0 LAT Au 0 0.000 196.96654
5277 Au 0 LAT Au 0 0.000 196.96654
5278 Au 0 LAT Au 0 0.000 196.96654
5279 Au 0 LAT Au 0 0.000 196.96654
5280 Au 0 LAT Au 0 0.000 196.96654
5281 Au 0 LAT Au 0 0.000 196.96654
5282 Au 0 LAT Au 0 0.000 196.96654
5283 Au 0 LAT Au 0 0.000 196.96654
5284 Au 0 LAT Au 0 0.000 196.96654
5285 Au 0 LAT Au 0 0.000 196.96654
5286 Au 0 LAT Au 0 0.000 196.96654
5287 Au 0 LAT Au 0 0.000 196.96654
5288 Au 0 LAT Au 0 0.000 196.96654
5289 Au 0 LAT Au 0 0.000 196.96654
5290 Au 0 LAT Au 0 0.000 196.96654
5291 Au 0 LAT Au 0 0.000 196.96654
5292 Au 0 LAT Au 0 0.000 196.96654
5293 Au 0 LAT Au 0 0.000 196.96654
5294 Au 0 LAT Au 0 0.000 196.96654
5295 Au 0 LAT Au 0 0.000 196.96654
5296 Au 0 LAT Au 0 0.000 196.96654
5297 Au 0 LAT Au 0 0.000 196.96654
5298 Au 0 LAT Au 0 0.000 196.96654
5299 Au 0 LAT Au 0 0.000 196.96654
5300 Au 0 LAT Au 0 0.000 196.96654
5301 Au 0 LAT Au 0 0.000 196.96654
5302 Au 0 LAT Au 0 0.000 196.96654
5303 Au 0 LAT Au 0 0.000 196.96654
5304 Au 0 LAT Au 0 0.000 196.96654
5305 Au 0 LAT Au 0 0.000 196.96654
5306 Au 0 LAT Au 0 0.000 196.96654
5307 Au 0 LAT Au 0 0.000 196.96654
5308 Au 0 LAT Au 0 0.000 196.96654
5309 Au 0 LAT Au 0 0.000 196.96654
5310 Au 0 LAT Au 0 0.000 196.96654
5311 Au 0 LAT Au 0 0.000 196.96654
5312 Au 0 LAT Au 0 0.000 196.96654
5313 Au 0 LAT Au 0 0.000 196.96654
5314 Au 0 LAT Au 0 0.000 196.96654
5315 Au 0 LAT Au 0 0.000 196.96654
5316 Au 0 LAT Au 0 0.000 196.96654
5317 Au 0 LAT Au 0 0.000 196.96654
5318 Au 0 LAT Au 0 0.000 196.96654
5319 Au 0 LAT Au 0 0.000 196.96654
5320 Au 0 LAT Au 0 0.000 196.96654
5321 Au 0 LAT Au 0 0.000 196.96654
5322 Au 0 LAT Au 0 0.000 196.96654
5323 Au 0 LAT Au 0 0.000 196.96654
5324 Au 0 LAT Au 0 0.000 196.96654
5325 Au 0 LAT Au 0 0.000 196.96654
5326 Au 0 LAT Au 0 0.000 196.96654
5327 Au 0 LAT Au 0 0.000 196.96654
5328 Au 0 LAT Au 0 0.000 196.96654
5329 Au 0 LAT Au 0 0.000 196.96654
5330 Au 0 LAT Au 0 0.000 196.96654
5331 Au 0 LAT Au 0 0.000 196.96654
5332 Au 0 LAT Au 0 0.000 196.96654
5333 Au 0 LAT Au 0 0.000 196.96654
5334 Au 0 LAT Au 0 0.000 196.96654
5335 Au 0 LAT Au 0 0.000 196.96654
5336 Au 0 LAT Au 0 0.000 196.96654
5337 Au 0 LAT Au 0 0.000 196.96654
5338 Au 0 LAT Au 0 0.000 196.96654
5339 Au 0 LAT Au 0 0.000 196.96654
5340 Au 0 LAT Au 0 0.000 196.96654
5341 Au 0 LAT Au 0 0.000 196.96654
5342 Au 0 LAT Au 0 0.000 196.96654
5343 Au 0 LAT Au 0 0.000 196.96654
5344 Au 0 LAT Au 0 0.000 196.96654
5345 Au 0 LAT Au 0 0.000 196.96654
5346 Au 0 LAT Au 0 0.000 196.96654
5347 Au 0 LAT Au 0 0.000 196.96654
5348 Au 0 LAT Au 0 0.000 196.96654
5349 Au 0 LAT Au 0 0.000 196.96654
5350 Au 0 LAT Au 0 0.000 196.96654
5351 Au 0 LAT Au 0 0.000 196.96654
5352 Au 0 LAT Au 0 0.000 196.96654
5353 Au 0 LAT Au 0 0.000 196.96654
5354 Au 0 LAT Au 0 0.000 196.96654
5355 Au 0 LAT Au 0 0.000 196.96654
5356 Au 0 LAT Au 0 0.000 196.96654
5357 Au 0 LAT Au 0 0.000 196.96654
5358 Au 0 LAT Au 0 0.000 196.96654
5359 Au 0 LAT Au 0 0.000 196.96654
5360 Au 0 LAT Au 0 0.000 196.96654
5361 Au 0 LAT Au 0 0.000 196.96654
5362 Au 0 LAT Au 0 0.000 196.96654
5363 Au 0 LAT Au 0 0.000 196.96654
5364 Au 0 LAT Au 0 0.000 196.96654
5365 Au 0 LAT Au 0 0.000 196.96654
5366 Au 0 LAT Au 0 0.000 196.96654
5367 Au 0 LAT Au 0 0.000 196.96654
5368 Au 0 LAT Au 0 0.000 196.96654
5369 Au 0 LAT Au 0 0.000 196.96654
5370 Au 0 LAT Au 0 0.000 196.96654
5371 Au 0 LAT Au 0 0.000 196.96654
5372 Au 0 LAT Au 0 0.000 196.96654
5373 Au 0 LAT Au 0 0.000 196.96654
5374 Au 0 LAT Au 0 0.000 196.96654
5375 Au 0 LAT Au 0 0.000 196.96654
5376 Au 0 LAT Au 0 0.000 196.96654
5377 Au 0 LAT Au 0 0.000 196.96654
5378 Au 0 LAT Au 0 0.000 196.96654
5379 Au 0 LAT Au 0 0.000 196.96654
5380 Au 0 LAT Au 0 0.000 196.96654
5381 Au 0 LAT Au 0 0.000 196.96654
5382 Au 0 LAT Au 0 0.000 196.96654
5383 Au 0 LAT Au 0 0.000 196.96654
5384 Au 0 LAT Au 0 0.000 196.96654
5385 Au 0 LAT Au 0 0.000 196.96654
5386 Au 0 LAT Au 0 0.000 196.96654
5387 Au 0 LAT Au 0 0.000 196.96654
5388 Au 0 LAT Au 0 0.000 196.96654
5389 Au 0 LAT Au 0 0.000 196.96654
5390 Au 0 LAT Au 0 0.000 196.96654
5391 Au 0 LAT Au 0 0.000 196.96654
5392 Au 0 LAT Au 0 0.000 196.96654
5393 Au 0 LAT Au 0 0.000 196.96654
5394 Au 0 LAT Au 0 0.000 196.96654
5395 Au 0 LAT Au 0 0.000 196.96654
5396 Au 0 LAT Au 0 0.000 196.96654
5397 Au 0 LAT Au 0 0.000 196.96654
5398 Au 0 LAT Au 0 0.000 196.96654
5399 Au 0 LAT Au 0 0.000 196.96654
5400 Au 0 LAT Au 0 0.000 196.96654
5401 Au 0 LAT Au 0 0.000 196.96654
5402 Au 0 LAT Au 0 0.000 196.96654
5403 Au 0 LAT Au 0 0.000 196.96654
5404 Au 0 LAT Au 0 0.000 196.96654
5405 Au 0 LAT Au 0 0.000 196.96654
5406 Au 0 LAT Au 0 0.000 196.96654
5407 Au 0 LAT Au 0 0.000 196.96654
5408 Au 0 LAT Au 0 0.000 196.96654
5409 Au 0 LAT Au 0 0.000 196.96654
5410 Au 0 LAT Au 0 0.000 196.96654
5411 Au 0 LAT Au 0 0.000 196.96654
5412 Au 0 LAT Au 0 0.000 196.96654
5413 Au 0 LAT Au 0 0.000 196.96654
5414 Au 0 LAT Au 0 0.000 196.96654
5415 Au 0 LAT Au 0 0.000 196.96654
5416 Au 0 LAT Au 0 0.000 196.96654
5417 Au 0 LAT Au 0 0.000 196.96654
5418 Au 0 LAT Au 0 0.000 196.96654
5419 Au 0 LAT Au 0 0.000 196.96654
5420 Au 0 LAT Au 0 0.000 196.96654
5421 Au 0 LAT Au 0 0.000 196.96654
5422 Au 0 LAT Au 0 0.000 196.96654
5423 Au 0 LAT Au 0 0.000 196.96654
5424 Au 0 LAT Au 0 0.000 196.96654
5425 Au 0 LAT Au 0 0.000 196.96654
5426 Au 0 LAT Au 0 0.000 196.96654
5427 Au 0 LAT Au 0 0.000 196.96654
5428 Au 0 LAT Au 0 0.000 196.96654
5429 Au 0 LAT Au 0 0.000 196.96654
5430 Au 0 LAT Au 0 0.000 196.96654
5431 Au 0 LAT Au 0 0.000 196.96654
5432 Au 0 LAT Au 0 0.000 196.96654
5433 Au 0 LAT Au 0 0.000 196.96654
5434 Au 0 LAT Au 0 0.000 196.96654
5435 Au 0 LAT Au 0 0.000 196.96654
5436 Au 0 LAT Au 0 0.000 196.96654
5437 Au 0 LAT Au 0 0.000 196.96654
5438 Au 0 LAT Au 0 0.000 196.96654
5439 Au 0 LAT Au 0 0.000 196.96654
5440 Au 0 LAT Au 0 0.000 196.96654
5441 Au 0 LAT Au 0 0.000 196.96654
5442 Au 0 LAT Au 0 0.000 196.96654
5443 Au 0 LAT Au 0 0.000 196.96654
5444 Au 0 LAT Au 0 0.000 196.96654
5445 Au 0 LAT Au 0 0.000 196.96654
5446 Au 0 LAT Au 0 0.000 196.96654
5447 Au 0 LAT Au 0 0.000 196.96654
5448 Au 0 LAT Au 0 0.000 196.96654
5449 Au 0 LAT Au 0 0.000 196.96654
5450 Au 0 LAT Au 0 0.000 196.96654
5451 Au 0 LAT Au 0 0.000 196.96654
5452 Au 0 LAT Au 0 0.000 196.96654
5453 Au 0 LAT Au 0 0.000 196.96654
5454 Au 0 LAT Au 0 0.000 196.96654
5455 Au 0 LAT Au 0 0.000 196.96654
5456 Au 0 LAT Au 0 0.000 196.96654
5457 Au 0 LAT Au 0 0.000 196.96654
5458 Au 0 LAT Au 0 0.000 196.96654
5459 Au 0 LAT Au 0 0.000 196.96654
5460 Au 0 LAT Au 0 0.000 196.96654
5461 Au 0 LAT Au 0 0.000 196.96654
5462 Au 0 LAT Au 0 0.000 196.96654
5463 Au 0 LAT Au 0 0.000 196.96654
5464 Au 0 LAT Au 0 0.000 196.96654
5465 Au 0 LAT Au 0 0.000 196.96654
5466 Au 0 LAT Au 0 0.000 196.96654
5467 Au 0 LAT Au 0 0.000 196.96654
5468 Au 0 LAT Au 0 0.000 196.96654
5469 Au 0 LAT Au 0 0.000 196.96654
5470 Au 0 LAT Au 0 0.000 196.96654
5471 Au 0 LAT Au 0 0.000 196.96654
5472 Au 0 LAT Au 0 0.000 196.96654
5473 Au 0 LAT Au 0 0.000 196.96654
5474 Au 0 LAT Au 0 0.000 196.96654
5475 Au 0 LAT Au 0 0.000 196.96654
5476 Au 0 LAT Au 0 0.000 196.96654
5477 Au 0 LAT Au 0 0.000 196.96654
5478 Au 0 LAT Au 0 0.000 196.96654
5479 Au 0 LAT Au 0 0.000 196.96654
5480 Au 0 LAT Au 0 0.000 196.96654
5481 Au 0 LAT Au 0 0.000 196.96654
5482 Au 0 LAT Au 0 0.000 196.96654
5483 Au 0 LAT Au 0 0.000 196.96654
5484 Au 0 LAT Au 0 0.000 196.96654
5485 Au 0 LAT Au 0 0.000 196.96654
5486 Au 0 LAT Au 0 0.000 196.96654
5487 Au 0 LAT Au 0 0.000 196.96654
5488 Au 0 LAT Au 0 0.000 196.96654
5489 Au 0 LAT Au 0 0.000 196.96654
5490 Au 0 LAT Au 0 0.000 196.96654
5491 Au 0 LAT Au 0 0.000 196.96654
5492 Au 0 LAT Au 0 0.000 196.96654
5493 Au 0 LAT Au 0 0.000 196.96654
5494 Au 0 LAT Au 0 0.000 196.96654
5495 Au 0 LAT Au 0 0.000 196.96654
5496 Au 0 LAT Au 0 0.000 196.96654
5497 Au 0 LAT Au 0 0.000 196.96654
5498 Au 0 LAT Au 0 0.000 196.96654
5499 Au 0 LAT Au 0 0.000 196.96654
5500 Au 0 LAT Au 0 0.000 196.96654
5501 Au 0 LAT Au 0 0.000 196.96654
5502 Au 0 LAT Au 0 0.000 196.96654
5503 Au 0 LAT Au 0 0.000 196.96654
5504 Au 0 LAT Au 0 0.000 196.96654
5505 Au 0 LAT Au 0 0.000 196.96654
5506 Au 0 LAT Au 0 0.000 196.96654
5507 Au 0 LAT Au 0 0.000 196.96654
5508 Au 0 LAT Au 0 0.000 196.96654
5509 Au 0 LAT Au 0 0.000 196.96654
5510 Au 0 LAT Au 0 0.000 196.96654
5511 Au 0 LAT Au 0 0.000 196.96654
5512 Au 0 LAT Au 0 0.000 196.96654
5513 Au 0 LAT Au 0 0.000 196.96654
5514 Au 0 LAT Au 0 0.000 196.96654
5515 Au 0 LAT Au 0 0.000 196.96654
5516 Au 0 LAT Au 0 0.000 196.96654
5517 Au 0 LAT Au 0 0.000 196.96654
5518 Au 0 LAT Au 0 0.000 196.96654
5519 Au 0 LAT Au 0 0.000 196.96654
5520 Au 0 LAT Au 0 0.000 196.96654
5521 Au 0 LAT Au 0 0.000 196.96654
5522 Au 0 LAT Au 0 0.000 196.96654
5523 Au 0 LAT Au 0 0.000 196.96654
5524 Au 0 LAT Au 0 0.000 196.96654
5525 Au 0 LAT Au 0 0.000 196.96654
5526 Au 0 LAT Au 0 0.000 196.96654
5527 Au 0 LAT Au 0 0.000 196.96654
5528 Au 0 LAT Au 0 0.000 196.96654
5529 Au 0 LAT Au 0 0.000 196.96654
5530 Au 0 LAT Au 0 0.000 196.96654
5531 Au 0 LAT Au 0 0.000 196.96654
5532 Au 0 LAT Au 0 0.000 196.96654
5533 Au 0 LAT Au 0 0.000 196.96654
5534 Au 0 LAT Au 0 0.000 196.96654
5535 Au 0 LAT Au 0 0.000 196.96654
5536 Au 0 LAT Au 0 0.000 196.96654
5537 Au 0 LAT Au 0 0.000 196.96654
5538 Au 0 LAT Au 0 0.000 196.96654
5539 Au 0 LAT Au 0 0.000 196.96654
5540 Au 0 LAT Au 0 0.000 196.96654
5541 Au 0 LAT Au 0 0.000 196.96654
5542 Au 0 LAT Au 0 0.000 196.96654
5543 Au 0 LAT Au 0 0.000 196.96654
5544 Au 0 LAT Au 0 0.000 196.96654
5545 Au 0 LAT Au 0 0.000 196.96654
5546 Au 0 LAT Au 0 0.000 196.96654
5547 Au 0 LAT Au 0 0.000 196.96654
5548 Au 0 LAT Au 0 0.000 196.96654
5549 Au 0 LAT Au 0 0.000 196.96654
5550 Au 0 LAT Au 0 0.000 196.96654
5551 Au 0 LAT Au 0 0.000 196.96654
5552 Au 0 LAT Au 0 0.000 196.96654
5553 Au 0 LAT Au 0 0.000 196.96654
5554 Au 0 LAT Au 0 0.000 196.96654
5555 Au 0 LAT Au 0 0.000 196.96654
5556 Au 0 LAT Au 0 0.000 196.96654
5557 Au 0 LAT Au 0 0.000 196.96654
5558 Au 0 LAT Au 0 0.000 196.96654
5559 Au 0 LAT Au 0 0.000 196.96654
5560 Au 0 LAT Au 0 0.000 196.96654
5561 Au 0 LAT Au 0 0.000 196.96654
5562 Au 0 LAT Au 0 0.000 196.96654
5563 Au 0 LAT Au 0 0.000 196.96654
5564 Au 0 LAT Au 0 0.000 196.96654
5565 Au 0 LAT Au 0 0.000 196.96654
5566 Au 0 LAT Au 0 0.000 196.96654
5567 Au 0 LAT Au 0 0.000 196.96654
5568 Au 0 LAT Au 0 0.000 196.96654
5569 Au 0 LAT Au 0 0.000 196.96654
5570 Au 0 LAT Au 0 0.000 196.96654
5571 Au 0 LAT Au 0 0.000 196.96654
5572 Au 0 LAT Au 0 0.000 196.96654
5573 Au 0 LAT Au 0 0.000 196.96654
5574 Au 0 LAT Au 0 0.000 196.96654
5575 Au 0 LAT Au 0 0.000 196.96654
5576 Au 0 LAT Au 0 0.000 196.96654
5577 Au 0 LAT Au 0 0.000 196.96654
5578 Au 0 LAT Au 0 0.000 196.96654
5579 Au 0 LAT Au 0 0.000 196.96654
5580 Au 0 LAT Au 0 0.000 196.96654
5581 Au 0 LAT Au 0 0.000 196.96654
5582 Au 0 LAT Au 0 0.000 196.96654
5583 Au 0 LAT Au 0 0.000 196.96654
5584 Au 0 LAT Au 0 0.000 196.96654
5585 Au 0 LAT Au 0 0.000 196.96654
5586 Au 0 LAT Au 0 0.000 196.96654
5587 Au 0 LAT Au 0 0.000 196.96654
5588 Au 0 LAT Au 0 0.000 196.96654
5589 Au 0 LAT Au 0 0.000 196.96654
5590 Au 0 LAT Au 0 0.000 196.96654
5591 Au 0 LAT Au 0 0.000 196.96654
5592 Au 0 LAT Au 0 0.000 196.96654
5593 Au 0 LAT Au 0 0.000 196.96654
5594 Au 0 LAT Au 0 0.000 196.96654
5595 Au 0 LAT Au 0 0.000 196.96654
5596 Au 0 LAT Au 0 0.000 196.96654
5597 Au 0 LAT Au 0 0.000 196.96654
5598 Au 0 LAT Au 0 0.000 196.96654
5599 Au 0 LAT Au 0 0.000 196.96654
5600 Au 0 LAT Au 0 0.000 196.96654
5601 Au 0 LAT Au 0 0.000 196.96654
5602 Au 0 LAT Au 0 0.000 196.96654
5603 Au 0 LAT Au 0 0.000 196.96654
5604 Au 0 LAT Au 0 0.000 196.96654
5605 Au 0 LAT Au 0 0.000 196.96654
5606 Au 0 LAT Au 0 0.000 196.96654
5607 Au 0 LAT Au 0 0.000 196.96654
5608 Au 0 LAT Au 0 0.000 196.96654
5609 Au 0 LAT Au 0 0.000 196.96654
5610 Au 0 LAT Au 0 0.000 196.96654
5611 Au 0 LAT Au 0 0.000 196.96654
5612 Au 0 LAT Au 0 0.000 196.96654
5613 Au 0 LAT Au 0 0.000 196.96654
5614 Au 0 LAT Au 0 0.000 196.96654
5615 Au 0 LAT Au 0 0.000 196.96654
5616 Au 0 LAT Au 0 0.000 196.96654
5617 Au 0 LAT Au 0 0.000 196.96654
5618 Au 0 LAT Au 0 0.000 196.96654
5619 Au 0 LAT Au 0 0.000 196.96654
5620 Au 0 LAT Au 0 0.000 196.96654
5621 Au 0 LAT Au 0 0.000 196.96654
5622 Au 0 LAT Au 0 0.000 196.96654
5623 Au 0 LAT Au 0 0.000 196.96654
5624 Au 0 LAT Au 0 0.000 196.96654
5625 Au 0 LAT Au 0 0.000 196.96654
5626 Au 0 LAT Au 0 0.000 196.96654
5627 Au 0 LAT Au 0 0.000 196.96654
5628 Au 0 LAT Au 0 0.000 196.96654
5629 Au 0 LAT Au 0 0.000 196.96654
5630 Au 0 LAT Au 0 0.000 196.96654
5631 Au 0 LAT Au 0 0.000 196.96654
5632 Au 0 LAT Au 0 0.000 196.96654
5633 Au 0 LAT Au 0 0.000 196.96654
5634 Au 0 LAT Au 0 0.000 196.96654
5635 Au 0 LAT Au 0 0.000 196.96654
5636 Au 0 LAT Au 0 0.000 196.96654
5637 Au 0 LAT Au 0 0.000 196.96654
5638 Au 0 LAT Au 0 0.000 196.96654
5639 Au 0 LAT Au 0 0.000 196.96654
5640 Au 0 LAT Au 0 0.000 196.96654
5641 Au 0 LAT Au 0 0.000 196.96654
5642 Au 0 LAT Au 0 0.000 196.96654
5643 Au 0 LAT Au 0 0.000 196.96654
5644 Au 0 LAT Au 0 0.000 196.96654
5645 Au 0 LAT Au 0 0.000 196.96654
5646 Au 0 LAT Au 0 0.000 196.96654
5647 Au 0 LAT Au 0 0.000 196.96654
5648 Au 0 LAT Au 0 0.000 196.96654
5649 Au 0 LAT Au 0 0.000 196.96654
5650 Au 0 LAT Au 0 0.000 196.96654
5651 Au 0 LAT Au 0 0.000 196.96654
5652 Au 0 LAT Au 0 0.000 196.96654
5653 Au 0 LAT Au 0 0.000 196.96654
5654 Au 0 LAT Au 0 0.000 196.96654
5655 Au 0 LAT Au 0 0.000 196.96654
5656 Au 0 LAT Au 0 0.000 196.96654
5657 Au 0 LAT Au 0 0.000 196.96654
5658 Au 0 LAT Au 0 0.000 196.96654
5659 Au 0 LAT Au 0 0.000 196.96654
5660 Au 0 LAT Au 0 0.000 196.96654
5661 Au 0 LAT Au 0 0.000 196.96654
5662 Au 0 LAT Au 0 0.000 196.96654
5663 Au 0 LAT Au 0 0.000 196.96654
5664 Au 0 LAT Au 0 0.000 196.96654
5665 Au 0 LAT Au 0 0.000 196.96654
5666 Au 0 LAT Au 0 0.000 196.96654
5667 Au 0 LAT Au 0 0.000 196.96654
5668 Au 0 LAT Au 0 0.000 196.96654
5669 Au 0 LAT Au 0 0.000 196.96654
5670 Au 0 LAT Au 0 0.000 196.96654
5671 Au 0 LAT Au 0 0.000 196.96654
5672 Au 0 LAT Au 0 0.000 196.96654
5673 Au 0 LAT Au 0 0.000 196.96654
5674 Au 0 LAT Au 0 0.000 196.96654
5675 Au 0 LAT Au 0 0.000 196.96654
5676 Au 0 LAT Au 0 0.000 196.96654
5677 Au 0 LAT Au 0 0.000 196.96654
5678 Au 0 LAT Au 0 0.000 196.96654
5679 Au 0 LAT Au 0 0.000 196.96654
5680 Au 0 LAT Au 0 0.000 196.96654
5681 Au 0 LAT Au 0 0.000 196.96654
5682 Au 0 LAT Au 0 0.000 196.96654
5683 Au 0 LAT Au 0 0.000 196.96654
5684 Au 0 LAT Au 0 0.000 196.96654
5685 Au 0 LAT Au 0 0.000 196.96654
5686 Au 0 LAT Au 0 0.000 196.96654
5687 Au 0 LAT Au 0 0.000 196.96654
5688 Au 0 LAT Au 0 0.000 196.96654
5689 Au 0 LAT Au 0 0.000 196.96654
5690 Au 0 LAT Au 0 0.000 196.96654
5691 Au 0 LAT Au 0 0.000 196.96654
5692 Au 0 LAT Au 0 0.000 196.96654
5693 Au 0 LAT Au 0 0.000 196.96654
5694 Au 0 LAT Au 0 0.000 196.96654
5695 Au 0 LAT Au 0 0.000 196.96654
5696 Au 0 LAT Au 0 0.000 196.96654
5697 Au 0 LAT Au 0 0.000 196.96654
5698 Au 0 LAT Au 0 0.000 196.96654
5699 Au 0 LAT Au 0 0.000 196.96654
5700 Au 0 LAT Au 0 0.000 196.96654
5701 Au 0 LAT Au 0 0.000 196.96654
5702 Au 0 LAT Au 0 0.000 196.96654
5703 Au 0 LAT Au 0 0.000 196.96654
5704 Au 0 LAT Au 0 0.000 196.96654
5705 Au 0 LAT Au 0 0.000 196.96654
5706 Au 0 LAT Au 0 0.000 196.96654
5707 Au 0 LAT Au 0 0.000 196.96654
5708 Au 0 LAT Au 0 0.000 196.96654
5709 Au 0 LAT Au 0 0.000 196.96654
5710 Au 0 LAT Au 0 0.000 196.96654
5711 Au 0 LAT Au 0 0.000 196.96654
5712 Au 0 LAT Au 0 0.000 196.96654
5713 Au 0 LAT Au 0 0.000 196.96654
5714 Au 0 LAT Au 0 0.000 196.96654
5715 Au 0 LAT Au 0 0.000 196.96654
5716 Au 0 LAT Au 0 0.000 196.96654
5717 Au 0 LAT Au 0 0.000 196.96654
5718 Au 0 LAT Au 0 0.000 196.96654
5719 Au 0 LAT Au 0 0.000 196.96654
5720 Au 0 LAT Au 0 0.000 196.96654
5721 Au 0 LAT Au 0 0.000 196.96654
5722 Au 0 LAT Au 0 0.000 196.96654
5723 Au 0 LAT Au 0 0.000 196.96654
5724 Au 0 LAT Au 0 0.000 196.96654
5725 Au 0 LAT Au 0 0.000 196.96654
5726 Au 0 LAT Au 0 0.000 196.96654
5727 Au 0 LAT Au 0 0.000 196.96654
5728 Au 0 LAT Au 0 0.000 196.96654
5729 Au 0 LAT Au 0 0.000 196.96654
5730 Au 0 LAT Au 0 0.000 196.96654
5731 Au 0 LAT Au 0 0.000 196.96654
5732 Au 0 LAT Au 0 0.000 196.96654
5733 Au 0 LAT Au 0 0.000 196.96654
5734 Au 0 LAT Au 0 0.000 196.96654
5735 Au 0 LAT Au 0 0.000 196.96654
5736 Au 0 LAT Au 0 0.000 196.96654
5737 Au 0 LAT Au 0 0.000 196.96654
5738 Au 0 LAT Au 0 0.000 196.96654
5739 Au 0 LAT Au 0 0.000 196.96654
5740 Au 0 LAT Au 0 0.000 196.96654
5741 Au 0 LAT Au 0 0.000 196.96654
5742 Au 0 LAT Au 0 0.000 196.96654
5743 Au 0 LAT Au 0 0.000 196.96654
5744 Au 0 LAT Au 0 0.000 196.96654
5745 Au 0 LAT Au 0 0.000 196.96654
5746 Au 0 LAT Au 0 0.000 196.96654
5747 Au 0 LAT Au 0 0.000 196.96654
5748 Au 0 LAT Au 0 0.000 196.96654
5749 Au 0 LAT Au 0 0.000 196.96654
5750 Au 0 LAT Au 0 0.000 196.96654
5751 Au 0 LAT Au 0 0.000 196.96654
5752 Au 0 LAT Au 0 0.000 196.96654
5753 Au 0 LAT Au 0 0.000 196.96654
5754 Au 0 LAT Au 0 0.000 196.96654
5755 Au 0 LAT Au 0 0.000 196.96654
5756 Au 0 LAT Au 0 0.000 196.96654
5757 Au 0 LAT Au 0 0.000 196.96654
5758 Au 0 LAT Au 0 0.000 196.96654
5759 Au 0 LAT Au 0 0.000 196.96654
5760 Au 0 LAT Au 0 0.000 196.96654
5761 Au 0 LAT Au 0 0.000 196.96654
5762 Au 0 LAT Au 0 0.000 196.96654
5763 Au 0 LAT Au 0 0.000 196.96654
5764 Au 0 LAT Au 0 0.000 196.96654
5765 Au 0 LAT Au 0 0.000 196.96654
5766 Au 0 LAT Au 0 0.000 196.96654
5767 Au 0 LAT Au 0 0.000 196.96654
5768 Au 0 LAT Au 0 0.000 196.96654
5769 Au 0 LAT Au 0 0.000 196.96654
5770 Au 0 LAT Au 0 0.000 196.96654
5771 Au 0 LAT Au 0 0.000 196.96654
5772 Au 0 LAT Au 0 0.000 196.96654
5773 Au 0 LAT Au 0 0.000 196.96654
5774 Au 0 LAT Au 0 0.000 196.96654
5775 Au 0 LAT Au 0 0.000 196.96654
5776 Au 0 LAT Au 0 0.000 196.96654
5777 Au 0 LAT Au 0 0.000 196.96654
5778 Au 0 LAT Au 0 0.000 196.96654
5779 Au 0 LAT Au 0 0.000 196.96654
5780 Au 0 LAT Au 0 0.000 196.96654
5781 Au 0 LAT Au 0 0.000 196.96654
5782 Au 0 LAT Au 0 0.000 196.96654
5783 Au 0 LAT Au 0 0.000 196.96654
5784 Au 0 LAT Au 0 0.000 196.96654
5785 Au 0 LAT Au 0 0.000 196.96654
5786 Au 0 LAT Au 0 0.000 196.96654
5787 Au 0 LAT Au 0 0.000 196.96654
5788 Au 0 LAT Au 0 0.000 196.96654
5789 Au 0 LAT Au 0 0.000 196.96654
5790 Au 0 LAT Au 0 0.000 196.96654
5791 Au 0 LAT Au 0 0.000 196.96654
5792 Au 0 LAT Au 0 0.000 196.96654
5793 Au 0 LAT Au 0 0.000 196.96654
5794 Au 0 LAT Au 0 0.000 196.96654
5795 Au 0 LAT Au 0 0.000 196.96654
5796 Au 0 LAT Au 0 0.000 196.96654
5797 Au 0 LAT Au 0 0.000 196.96654
5798 Au 0 LAT Au 0 0.000 196.96654
5799 Au 0 LAT Au 0 0.000 196.96654
5800 Au 0 LAT Au 0 0.000 196.96654
5801 Au 0 LAT Au 0 0.000 196.96654
5802 Au 0 LAT Au 0 0.000 196.96654
5803 Au 0 LAT Au 0 0.000 196.96654
5804 Au 0 LAT Au 0 0.000 196.96654
5805 Au 0 LAT Au 0 0.000 196.96654
5806 Au 0 LAT Au 0 0.000 196.96654
5807 Au 0 LAT Au 0 0.000 196.96654
5808 Au 0 LAT Au 0 0.000 196.96654
5809 Au 0 LAT Au 0 0.000 196.96654
5810 Au 0 LAT Au 0 0.000 196.96654
5811 Au 0 LAT Au 0 0.000 196.96654
5812 Au 0 LAT Au 0 0.000 196.96654
5813 Au 0 LAT Au 0 0.000 196.96654
5814 Au 0 LAT Au 0 0.000 196.96654
5815 Au 0 LAT Au 0 0.000 196.96654
5816 Au 0 LAT Au 0 0.000 196.96654
5817 Au 0 LAT Au 0 0.000 196.96654
5818 Au 0 LAT Au 0 0.000 196.96654
5819 Au 0 LAT Au 0 0.000 196.96654
5820 Au 0 LAT Au 0 0.000 196.96654
5821 Au 0 LAT Au 0 0.000 196.96654
5822 Au 0 LAT Au 0 0.000 196.96654
5823 Au 0 LAT Au 0 0.000 196.96654
5824 Au 0 LAT Au 0 0.000 196.96654
5825 Au 0 LAT Au 0 0.000 196.96654
5826 Au 0 LAT Au 0 0.000 196.96654
5827 Au 0 LAT Au 0 0.000 196.96654
5828 Au 0 LAT Au 0 0.000 196.96654
5829 Au 0 LAT Au 0 0.000 196.96654
5830 Au 0 LAT Au 0 0.000 196.96654
5831 Au 0 LAT Au 0 0.000 196.96654
5832 Au 0 LAT Au 0 0.000 196.96654
5833 Au 0 LAT Au 0 0.000 196.96654
5834 Au 0 LAT Au 0 0.000 196.96654
5835 Au 0 LAT Au 0 0.000 196.96654
5836 Au 0 LAT Au 0 0.000 196.96654
5837 Au 0 LAT Au 0 0.000 196.96654
5838 Au 0 LAT Au 0 0.000 196.96654
5839 Au 0 LAT Au 0 0.000 196.96654
5840 Au 0 LAT Au 0 0.000 196.96654
5841 Au 0 LAT Au 0 0.000 196.96654
5842 Au 0 LAT Au 0 0.000 196.96654
5843 Au 0 LAT Au 0 0.000 196.96654
5844 Au 0 LAT Au 0 0.000 196.96654
5845 Au 0 LAT Au 0 0.000 196.96654
5846 Au 0 LAT Au 0 0.000 196.96654
5847 Au 0 LAT Au 0 0.000 196.96654
5848 Au 0 LAT Au 0 0.000 196.96654
5849 Au 0 LAT Au 0 0.000 196.96654
5850 Au 0 LAT Au 0 0.000 196.96654
5851 Au 0 LAT Au 0 0.000 196.96654
5852 Au 0 LAT Au 0 0.000 196.96654
5853 Au 0 LAT Au 0 0.000 196.96654
5854 Au 0 LAT Au 0 0.000 196.96654
5855 Au 0 LAT Au 0 0.000 196.96654
5856 Au 0 LAT Au 0 0.000 196.96654
5857 Au 0 LAT Au 0 0.000 196.96654
5858 Au 0 LAT Au 0 0.000 196.96654
5859 Au 0 LAT Au 0 0.000 196.96654
5860 Au 0 LAT Au 0 0.000 196.96654
5861 Au 0 LAT Au 0 0.000 196.96654
5862 Au 0 LAT Au 0 0.000 196.96654
5863 Au 0 LAT Au 0 0.000 196.96654
5864 Au 0 LAT Au 0 0.000 196.96654
5865 Au 0 LAT Au 0 0.000 196.96654
5866 Au 0 LAT Au 0 0.000 196.96654
5867 Au 0 LAT Au 0 0.000 196.96654
5868 Au 0 LAT Au 0 0.000 196.96654
5869 Au 0 LAT Au 0 0.000 196.96654
5870 Au 0 LAT Au 0 0.000 196.96654
5871 Au 0 LAT Au 0 0.000 196.96654
5872 Au 0 LAT Au 0 0.000 196.96654
5873 Au 0 LAT Au 0 0.000 196.96654
5874 Au 0 LAT Au 0 0.000 196.96654
5875 Au 0 LAT Au 0 0.000 196.96654
5876 Au 0 LAT Au 0 0.000 196.96654
5877 Au 0 LAT Au 0 0.000 196.96654
5878 Au 0 LAT Au 0 0.000 196.96654
5879 Au 0 LAT Au 0 0.000 196.96654
5880 Au 0 LAT Au 0 0.000 196.96654
5881 Au 0 LAT Au 0 0.000 196.96654
5882 Au 0 LAT Au 0 0.000 196.96654
5883 Au 0 LAT Au 0 0.000 196.96654
5884 Au 0 LAT Au 0 0.000 196.96654
5885 Au 0 LAT Au 0 0.000 196.96654
5886 Au 0 LAT Au 0 0.000 196.96654
5887 Au 0 LAT Au 0 0.000 196.96654
5888 Au 0 LAT Au 0 0.000 196.96654
5889 Au 0 LAT Au 0 0.000 196.96654
5890 Au 0 LAT Au 0 0.000 196.96654
5891 Au 0 LAT Au 0 0.000 196.96654
5892 Au 0 LAT Au 0 0.000 196.96654
5893 Au 0 LAT Au 0 0.000 196.96654
5894 Au 0 LAT Au 0 0.000 196.96654
5895 Au 0 LAT Au 0 0.000 196.96654
5896 Au 0 LAT Au 0 0.000 196.96654
5897 Au 0 LAT Au 0 0.000 196.96654
5898 Au 0 LAT Au 0 0.000 196.96654
5899 Au 0 LAT Au 0 0.000 196.96654
5900 Au 0 LAT Au 0 0.000 196.96654
5901 Au 0 LAT Au 0 0.000 196.96654
5902 Au 0 LAT Au 0 0.000 196.96654
5903 Au 0 LAT Au 0 0.000 196.96654
5904 Au 0 LAT Au 0 0.000 196.96654
5905 Au 0 LAT Au 0 0.000 196.96654
5906 Au 0 LAT Au 0 0.000 196.96654
5907 Au 0 LAT Au 0 0.000 196.96654
5908 Au 0 LAT Au 0 0.000 196.96654
5909 Au 0 LAT Au 0 0.000 196.96654
5910 Au 0 LAT Au 0 0.000 196.96654
5911 Au 0 LAT Au 0 0.000 196.96654
5912 Au 0 LAT Au 0 0.000 196.96654
5913 Au 0 LAT Au 0 0.000 196.96654
5914 Au 0 LAT Au 0 0.000 196.96654
5915 Au 0 LAT Au 0 0.000 196.96654
5916 Au 0 LAT Au 0 0.000 196.96654
5917 Au 0 LAT Au 0 0.000 196.96654
5918 Au 0 LAT Au 0 0.000 196.96654
5919 Au 0 LAT Au 0 0.000 196.96654
5920 Au 0 LAT Au 0 0.000 196.96654
5921 Au 0 LAT Au 0 0.000 196.96654
5922 Au 0 LAT Au 0 0.000 196.96654
5923 Au 0 LAT Au 0 0.000 196.96654
5924 Au 0 LAT Au 0 0.000 196.96654
5925 Au 0 LAT Au 0 0.000 196.96654
5926 Au 0 LAT Au 0 0.000 196.96654
5927 Au 0 LAT Au 0 0.000 196.96654
5928 Au 0 LAT Au 0 0.000 196.96654
5929 Au 0 LAT Au 0 0.000 196.96654
5930 Au 0 LAT Au 0 0.000 196.96654
5931 Au 0 LAT Au 0 0.000 196.96654
5932 Au 0 LAT Au 0 0.000 196.96654
5933 Au 0 LAT Au 0 0.000 196.96654
5934 Au 0 LAT Au 0 0.000 196.96654
5935 Au 0 LAT Au 0 0.000 196.96654
5936 Au 0 LAT Au 0 0.000 196.96654
5937 Au 0 LAT Au 0 0.000 196.96654
5938 Au 0 LAT Au 0 0.000 196.96654
5939 Au 0 LAT Au 0 0.000 196.96654
5940 Au 0 LAT Au 0 0.000 196.96654
5941 Au 0 LAT Au 0 0.000 196.96654
5942 Au 0 LAT Au 0 0.000 196.96654
5943 Au 0 LAT Au 0 0.000 196.96654
5944 Au 0 LAT Au 0 0.000 196.96654
5945 Au 0 LAT Au 0 0.000 196.96654
5946 Au 0 LAT Au 0 0.000 196.96654
5947 Au 0 LAT Au 0 0.000 196.96654
5948 Au 0 LAT Au 0 0.000 196.96654
5949 Au 0 LAT Au 0 0.000 196.96654
5950 Au 0 LAT Au 0 0.000 196.96654
5951 Au 0 LAT Au 0 0.000 196.96654
5952 Au 0 LAT Au 0 0.000 196.96654
5953 Au 0 LAT Au 0 0.000 196.96654
5954 Au 0 LAT Au 0 0.000 196.96654
5955 Au 0 LAT Au 0 0.000 196.96654
5956 Au 0 LAT Au 0 0.000 196.96654
5957 Au 0 LAT Au 0 0.000 196.96654
5958 Au 0 LAT Au 0 0.000 196.96654
5959 Au 0 LAT Au 0 0.000 196.96654
5960 Au 0 LAT Au 0 0.000 196.96654
5961 Au 0 LAT Au 0 0.000 196.96654
5962 Au 0 LAT Au 0 0.000 196.96654
5963 Au 0 LAT Au 0 0.000 196.96654
5964 Au 0 LAT Au 0 0.000 196.96654
5965 Au 0 LAT Au 0 0.000 196.96654
5966 Au 0 LAT Au 0 0.000 196.96654
5967 Au 0 LAT Au 0 0.000 196.96654
5968 Au 0 LAT Au 0 0.000 196.96654
5969 Au 0 LAT Au 0 0.000 196.96654
5970 Au 0 LAT Au 0 0.000 196.96654
5971 Au 0 LAT Au 0 0.000 196.96654
5972 Au 0 LAT Au 0 0.000 196.96654
5973 Au 0 LAT Au 0 0.000 196.96654
5974 Au 0 LAT Au 0 0.000 196.96654
5975 Au 0 LAT Au 0 0.000 196.96654
5976 Au 0 LAT Au 0 0.000 196.96654
5977 Au 0 LAT Au 0 0.000 196.96654
5978 Au 0 LAT Au 0 0.000 196.96654
5979 Au 0 LAT Au 0 0.000 196.96654
5980 Au 0 LAT Au 0 0.000 196.96654
5981 Au 0 LAT Au 0 0.000 196.96654
5982 Au 0 LAT Au 0 0.000 196.96654
5983 Au 0 LAT Au 0 0.000 196.96654
5984 Au 0 LAT Au 0 0.000 196.96654
5985 Au 0 LAT Au 0 0.000 196.96654
5986 Au 0 LAT Au 0 0.000 196.96654
5987 Au 0 LAT Au 0 0.000 196.96654
5988 Au 0 LAT Au 0 0.000 196.96654
5989 Au 0 LAT Au 0 0.000 196.96654
5990 Au 0 LAT Au 0 0.000 196.96654
5991 Au 0 LAT Au 0 0.000 196.96654
5992 Au 0 LAT Au 0 0.000 196.96654
5993 Au 0 LAT Au 0 0.000 196.96654
5994 Au 0 LAT Au 0 0.000 196.96654
5995 Au 0 LAT Au 0 0.000 196.96654
5996 Au 0 LAT Au 0 0.000 196.96654
5997 Au 0 LAT Au 0 0.000 196.96654
5998 Au 0 LAT Au 0 0.000 196.96654
5999 Au 0 LAT Au 0 0.000 196.96654
6000 Au 0 LAT Au 0 0.000 196.96654
6001 Au 0 LAT Au 0 0.000 196.96654
6002 Au 0 LAT Au 0 0.000 196.96654
6003 Au 0 LAT Au 0 0.000 196.96654
6004 Au 0 LAT Au 0 0.000 196.96654
6005 Au 0 LAT Au 0 0.000 196.96654
6006 Au 0 LAT Au 0 0.000 196.96654
6007 Au 0 LAT Au 0 0.000 196.96654
6008 Au 0 LAT Au 0 0.000 196.96654
6009 Au 0 LAT Au 0 0.000 196.96654
6010 Au 0 LAT Au 0 0.000 196.96654
6011 Au 0 LAT Au 0 0.000 196.96654
6012 Au 0 LAT Au 0 0.000 196.96654
6013 Au 0 LAT Au 0 0.000 196.96654
6014 Au 0 LAT Au 0 0.000 196.96654
6015 Au 0 LAT Au 0 0.000 196.96654
6016 Au 0 LAT Au 0 0.000 196.96654
6017 Au 0 LAT Au 0 0.000 196.96654
6018 Au 0 LAT Au 0 0.000 196.96654
6019 Au 0 LAT Au 0 0.000 196.96654
6020 Au 0 LAT Au 0 0.000 196.96654
6021 Au 0 LAT Au 0 0.000 196.96654
6022 Au 0 LAT Au 0 0.000 196.96654
6023 Au 0 LAT Au 0 0.000 196.96654
6024 Au 0 LAT Au 0 0.000 196.96654
6025 Au 0 LAT Au 0 0.000 196.96654
6026 Au 0 LAT Au 0 0.000 196.96654
6027 Au 0 LAT Au 0 0.000 196.96654
6028 Au 0 LAT Au 0 0.000 196.96654
6029 Au 0 LAT Au 0 0.000 196.96654
6030 Au 0 LAT Au 0 0.000 196.96654
6031 Au 0 LAT Au 0 0.000 196.96654
6032 Au 0 LAT Au 0 0.000 196.96654
6033 Au 0 LAT Au 0 0.000 196.96654
6034 Au 0 LAT Au 0 0.000 196.96654
6035 Au 0 LAT Au 0 0.000 196.96654
6036 Au 0 LAT Au 0 0.000 196.96654
6037 Au 0 LAT Au 0 0.000 196.96654
6038 Au 0 LAT Au 0 0.000 196.96654
6039 Au 0 LAT Au 0 0.000 196.96654
6040 Au 0 LAT Au 0 0.000 196.96654
6041 Au 0 LAT Au 0 0.000 196.96654
6042 Au 0 LAT Au 0 0.000 196.96654
6043 Au 0 LAT Au 0 0.000 196.96654
6044 Au 0 LAT Au 0 0.000 196.96654
6045 Au 0 LAT Au 0 0.000 196.96654
6046 Au 0 LAT Au 0 0.000 196.96654
6047 Au 0 LAT Au 0 0.000 196.96654
6048 Au 0 LAT Au 0 0.000 196.96654
6049 Au 0 LAT Au 0 0.000 196.96654
6050 Au 0 LAT Au 0 0.000 196.96654
6051 Au 0 LAT Au 0 0.000 196.96654
6052 Au 0 LAT Au 0 0.000 196.96654
6053 Au 0 LAT Au 0 0.000 196.96654
6054 Au 0 LAT Au 0 0.000 196.96654
6055 Au 0 LAT Au 0 0.000 196.96654
6056 Au 0 LAT Au 0 0.000 196.96654
6057 Au 0 LAT Au 0 0.000 196.96654
6058 Au 0 LAT Au 0 0.000 196.96654
6059 Au 0 LAT Au 0 0.000 196.96654
6060 Au 0 LAT Au 0 0.000 196.96654
6061 Au 0 LAT Au 0 0.000 196.96654
6062 Au 0 LAT Au 0 0.000 196.96654
6063 Au 0 LAT Au 0 0.000 196.96654
6064 Au 0 LAT Au 0 0.000 196.96654
6065 Au 0 LAT Au 0 0.000 196.96654
6066 Au 0 LAT Au 0 0.000 196.96654
6067 Au 0 LAT Au 0 0.000 196.96654
6068 Au 0 LAT Au 0 0.000 196.96654
6069 Au 0 LAT Au 0 0.000 196.96654
6070 Au 0 LAT Au 0 0.000 196.96654
6071 Au 0 LAT Au 0 0.000 196.96654
6072 Au 0 LAT Au 0 0.000 196.96654
6073 Au 0 LAT Au 0 0.000 196.96654
6074 Au 0 LAT Au 0 0.000 196.96654
6075 Au 0 LAT Au 0 0.000 196.96654
6076 Au 0 LAT Au 0 0.000 196.96654
6077 Au 0 LAT Au 0 0.000 196.96654
6078 Au 0 LAT Au 0 0.000 196.96654
6079 Au 0 LAT Au 0 0.000 196.96654
6080 Au 0 LAT Au 0 0.000 196.96654
6081 Au 0 LAT Au 0 0.000 196.96654
6082 Au 0 LAT Au 0 0.000 196.96654
6083 Au 0 LAT Au 0 0.000 196.96654
6084 Au 0 LAT Au 0 0.000 196.96654
6085 Au 0 LAT Au 0 0.000 196.96654
6086 Au 0 LAT Au 0 0.000 196.96654
6087 Au 0 LAT Au 0 0.000 196.96654
6088 Au 0 LAT Au 0 0.000 196.96654
6089 Au 0 LAT Au 0 0.000 196.96654
6090 Au 0 LAT Au 0 0.000 196.96654
6091 Au 0 LAT Au 0 0.000 196.96654
6092 Au 0 LAT Au 0 0.000 196.96654
6093 Au 0 LAT Au 0 0.000 196.96654
6094 Au 0 LAT Au 0 0.000 196.96654
6095 Au 0 LAT Au 0 0.000 196.96654
6096 Au 0 LAT Au 0 0.000 196.96654
6097 Au 0 LAT Au 0 0.000 196.96654
6098 Au 0 LAT Au 0 0.000 196.96654
6099 Au 0 LAT Au 0 0.000 196.96654
6100 Au 0 LAT Au 0 0.000 196.96654
6101 Au 0 LAT Au 0 0.000 196.96654
6102 Au 0 LAT Au 0 0.000 196.96654
6103 Au 0 LAT Au 0 0.000 196.96654
6104 Au 0 LAT Au 0 0.000 196.96654
6105 Au 0 LAT Au 0 0.000 196.96654
6106 Au 0 LAT Au 0 0.000 196.96654
6107 Au 0 LAT Au 0 0.000 196.96654
6108 Au 0 LAT Au 0 0.000 196.96654
6109 Au 0 LAT Au 0 0.000 196.96654
6110 Au 0 LAT Au 0 0.000 196.96654
6111 Au 0 LAT Au 0 0.000 196.96654
6112 Au 0 LAT Au 0 0.000 196.96654
6113 Au 0 LAT Au 0 0.000 196.96654
6114 Au 0 LAT Au 0 0.000 196.96654
6115 Au 0 LAT Au 0 0.000 196.96654
6116 Au 0 LAT Au 0 0.000 196.96654
6117 Au 0 LAT Au 0 0.000 196.96654
6118 Au 0 LAT Au 0 0.000 196.96654
6119 Au 0 LAT Au 0 0.000 196.96654
6120 Au 0 LAT Au 0 0.000 196.96654
6121 Au 0 LAT Au 0 0.000 196.96654
6122 Au 0 LAT Au 0 0.000 196.96654
6123 Au 0 LAT Au 0 0.000 196.96654
6124 Au 0 LAT Au 0 0.000 196.96654
6125 Au 0 LAT Au 0 0.000 196.96654
6126 Au 0 LAT Au 0 0.000 196.96654
6127 Au 0 LAT Au 0 0.000 196.96654
6128 Au 0 LAT Au 0 0.000 196.96654
6129 Au 0 LAT Au 0 0.000 196.96654
6130 Au 0 LAT Au 0 0.000 196.96654
6131 Au 0 LAT Au 0 0.000 196.96654
6132 Au 0 LAT Au 0 0.000 196.96654
6133 Au 0 LAT Au 0 0.000 196.96654
6134 Au 0 LAT Au 0 0.000 196.96654
6135 Au 0 LAT Au 0 0.000 196.96654
6136 Au 0 LAT Au 0 0.000 196.96654
6137 Au 0 LAT Au 0 0.000 196.96654
6138 Au 0 LAT Au 0 0.000 196.96654
6139 Au 0 LAT Au 0 0.000 196.96654
6140 Au 0 LAT Au 0 0.000 196.96654
6141 Au 0 LAT Au 0 0.000 196.96654
6142 Au 0 LAT Au 0 0.000 196.96654
6143 Au 0 LAT Au 0 0.000 196.96654
6144 Au 0 LAT Au 0 0.000 196.96654
6145 Au 0 LAT Au 0 0.000 196.96654
6146 Au 0 LAT Au 0 0.000 196.96654
6147 Au 0 LAT Au 0 0.000 196.96654
6148 Au 0 LAT Au 0 0.000 196.96654
6149 Au 0 LAT Au 0 0.000 196.96654
6150 Au 0 LAT Au 0 0.000 196.96654
6151 Au 0 LAT Au 0 0.000 196.96654
6152 Au 0 LAT Au 0 0.000 196.96654
6153 Au 0 LAT Au 0 0.000 196.96654
6154 Au 0 LAT Au 0 0.000 196.96654
6155 Au 0 LAT Au 0 0.000 196.96654
6156 Au 0 LAT Au 0 0.000 196.96654
6157 Au 0 LAT Au 0 0.000 196.96654
6158 Au 0 LAT Au 0 0.000 196.96654
6159 Au 0 LAT Au 0 0.000 196.96654
6160 Au 0 LAT Au 0 0.000 196.96654
6161 Au 0 LAT Au 0 0.000 196.96654
6162 Au 0 LAT Au 0 0.000 196.96654
6163 Au 0 LAT Au 0 0.000 196.96654
6164 Au 0 LAT Au 0 0.000 196.96654
6165 Au 0 LAT Au 0 0.000 196.96654
6166 Au 0 LAT Au 0 0.000 196.96654
6167 Au 0 LAT Au 0 0.000 196.96654
6168 Au 0 LAT Au 0 0.000 196.96654
6169 Au 0 LAT Au 0 0.000 196.96654
6170 Au 0 LAT Au 0 0.000 196.96654
6171 Au 0 LAT Au 0 0.000 196.96654
6172 Au 0 LAT Au 0 0.000 196.96654
6173 Au 0 LAT Au 0 0.000 196.96654
6174 Au 0 LAT Au 0 0.000 196.96654
6175 Au 0 LAT Au 0 0.000 196.96654
6176 Au 0 LAT Au 0 0.000 196.96654
6177 Au 0 LAT Au 0 0.000 196.96654
6178 Au 0 LAT Au 0 0.000 196.96654
6179 Au 0 LAT Au 0 0.000 196.96654
6180 Au 0 LAT Au 0 0.000 196.96654
6181 Au 0 LAT Au 0 0.000 196.96654
6182 Au 0 LAT Au 0 0.000 196.96654
6183 Au 0 LAT Au 0 0.000 196.96654
6184 Au 0 LAT Au 0 0.000 196.96654
6185 Au 0 LAT Au 0 0.000 196.96654
6186 Au 0 LAT Au 0 0.000 196.96654
6187 Au 0 LAT Au 0 0.000 196.96654
6188 Au 0 LAT Au 0 0.000 196.96654
6189 Au 0 LAT Au 0 0.000 196.96654
6190 Au 0 LAT Au 0 0.000 196.96654
6191 Au 0 LAT Au 0 0.000 196.96654
6192 Au 0 LAT Au 0 0.000 196.96654
6193 Au 0 LAT Au 0 0.000 196.96654
6194 Au 0 LAT Au 0 0.000 196.96654
6195 Au 0 LAT Au 0 0.000 196.96654
6196 Au 0 LAT Au 0 0.000 196.96654
6197 Au 0 LAT Au 0 0.000 196.96654
6198 Au 0 LAT Au 0 0.000 196.96654
6199 Au 0 LAT Au 0 0.000 196.96654
6200 Au 0 LAT Au 0 0.000 196.96654
6201 Au 0 LAT Au 0 0.000 196.96654
6202 Au 0 LAT Au 0 0.000 196.96654
6203 Au 0 LAT Au 0 0.000 196.96654
6204 Au 0 LAT Au 0 0.000 196.96654
6205 Au 0 LAT Au 0 0.000 196.96654
6206 Au 0 LAT Au 0 0.000 196.96654
6207 Au 0 LAT Au 0 0.000 196.96654
6208 Au 0 LAT Au 0 0.000 196.96654
6209 Au 0 LAT Au 0 0.000 196.96654
6210 Au 0 LAT Au 0 0.000 196.96654
6211 Au 0 LAT Au 0 0.000 196.96654
6212 Au 0 LAT Au 0 0.000 196.96654
6213 Au 0 LAT Au 0 0.000 196.96654
6214 Au 0 LAT Au 0 0.000 196.96654
6215 Au 0 LAT Au 0 0.000 196.96654
6216 Au 0 LAT Au 0 0.000 196.96654
6217 Au 0 LAT Au 0 0.000 196.96654
6218 Au 0 LAT Au 0 0.000 196.96654
6219 Au 0 LAT Au 0 0.000 196.96654
6220 Au 0 LAT Au 0 0.000 196.96654
6221 Au 0 LAT Au 0 0.000 196.96654
6222 Au 0 LAT Au 0 0.000 196.96654
6223 Au 0 LAT Au 0 0.000 196.96654
6224 Au 0 LAT Au 0 0.000 196.96654
6225 Au 0 LAT Au 0 0.000 196.96654
6226 Au 0 LAT Au 0 0.000 196.96654
6227 Au 0 LAT Au 0 0.000 196.96654
6228 Au 0 LAT Au 0 0.000 196.96654
6229 Au 0 LAT Au 0 0.000 196.96654
6230 Au 0 LAT Au 0 0.000 196.96654
6231 Au 0 LAT Au 0 0.000 196.96654
6232 Au 0 LAT Au 0 0.000 196.96654
6233 Au 0 LAT Au 0 0.000 196.96654
6234 Au 0 LAT Au 0 0.000 196.96654
6235 Au 0 LAT Au 0 0.000 196.96654
6236 Au 0 LAT Au 0 0.000 196.96654
6237 Au 0 LAT Au 0 0.000 196.96654
6238 Au 0 LAT Au 0 0.000 196.96654
6239 Au 0 LAT Au 0 0.000 196.96654
6240 Au 0 LAT Au 0 0.000 196.96654
6241 Au 0 LAT Au 0 0.000 196.96654
6242 Au 0 LAT Au 0 0.000 196.96654
6243 Au 0 LAT Au 0 0.000 196.96654
6244 Au 0 LAT Au 0 0.000 196.96654
6245 Au 0 LAT Au 0 0.000 196.96654
6246 Au 0 LAT Au 0 0.000 196.96654
6247 Au 0 LAT Au 0 0.000 196.96654
6248 Au 0 LAT Au 0 0.000 196.96654
6249 Au 0 LAT Au 0 0.000 196.96654
6250 Au 0 LAT Au 0 0.000 196.96654
6251 Au 0 LAT Au 0 0.000 196.96654
6252 Au 0 LAT Au 0 0.000 196.96654
6253 Au 0 LAT Au 0 0.000 196.96654
6254 Au 0 LAT Au 0 0.000 196.96654
6255 Au 0 LAT Au 0 0.000 196.96654
6256 Au 0 LAT Au 0 0.000 196.96654
6257 Au 0 LAT Au 0 0.000 196.96654
6258 Au 0 LAT Au 0 0.000 196.96654
6259 Au 0 LAT Au 0 0.000 196.96654
6260 Au 0 LAT Au 0 0.000 196.96654
6261 Au 0 LAT Au 0 0.000 196.96654
6262 Au 0 LAT Au 0 0.000 196.96654
6263 Au 0 LAT Au 0 0.000 196.96654
6264 Au 0 LAT Au 0 0.000 196.96654
6265 Au 0 LAT Au 0 0.000 196.96654
6266 Au 0 LAT Au 0 0.000 196.96654
6267 Au 0 LAT Au 0 0.000 196.96654
6268 Au 0 LAT Au 0 0.000 196.96654
6269 Au 0 LAT Au 0 0.000 196.96654
6270 Au 0 LAT Au 0 0.000 196.96654
6271 Au 0 LAT Au 0 0.000 196.96654
6272 Au 0 LAT Au 0 0.000 196.96654
6273 Au 0 LAT Au 0 0.000 196.96654
6274 Au 0 LAT Au 0 0.000 196.96654
6275 Au 0 LAT Au 0 0.000 196.96654
6276 Au 0 LAT Au 0 0.000 196.96654
6277 Au 0 LAT Au 0 0.000 196.96654
6278 Au 0 LAT Au 0 0.000 196.96654
6279 Au 0 LAT Au 0 0.000 196.96654
6280 Au 0 LAT Au 0 0.000 196.96654
6281 Au 0 LAT Au 0 0.000 196.96654
6282 Au 0 LAT Au 0 0.000 196.96654
6283 Au 0 LAT Au 0 0.000 196.96654
6284 Au 0 LAT Au 0 0.000 196.96654
6285 Au 0 LAT Au 0 0.000 196.96654
6286 Au 0 LAT Au 0 0.000 196.96654
6287 Au 0 LAT Au 0 0.000 196.96654
6288 Au 0 LAT Au 0 0.000 196.96654
6289 Au 0 LAT Au 0 0.000 196.96654
6290 Au 0 LAT Au 0 0.000 196.96654
6291 Au 0 LAT Au 0 0.000 196.96654
6292 Au 0 LAT Au 0 0.000 196.96654
6293 Au 0 LAT Au 0 0.000 196.96654
6294 Au 0 LAT Au 0 0.000 196.96654
6295 Au 0 LAT Au 0 0.000 196.96654
6296 Au 0 LAT Au 0 0.000 196.96654
6297 Au 0 LAT Au 0 0.000 196.96654
6298 Au 0 LAT Au 0 0.000 196.96654
6299 Au 0 LAT Au 0 0.000 196.96654
6300 Au 0 LAT Au 0 0.000 196.96654
6301 Au 0 LAT Au 0 0.000 196.96654
6302 Au 0 LAT Au 0 0.000 196.96654
6303 Au 0 LAT Au 0 0.000 196.96654
6304 Au 0 LAT Au 0 0.000 196.96654
6305 Au 0 LAT Au 0 0.000 196.96654
6306 Au 0 LAT Au 0 0.000 196.96654
6307 Au 0 LAT Au 0 0.000 196.96654
6308 Au 0 LAT Au 0 0.000 196.96654
6309 Au 0 LAT Au 0 0.000 196.96654
6310 Au 0 LAT Au 0 0.000 196.96654
6311 Au 0 LAT Au 0 0.000 196.96654
6312 Au 0 LAT Au 0 0.000 196.96654
6313 Au 0 LAT Au 0 0.000 196.96654
6314 Au 0 LAT Au 0 0.000 196.96654
6315 Au 0 LAT Au 0 0.000 196.96654
6316 Au 0 LAT Au 0 0.000 196.96654
6317 Au 0 LAT Au 0 0.000 196.96654
6318 Au 0 LAT Au 0 0.000 196.96654
6319 Au 0 LAT Au 0 0.000 196.96654
6320 Au 0 LAT Au 0 0.000 196.96654
6321 Au 0 LAT Au 0 0.000 196.96654
6322 Au 0 LAT Au 0 0.000 196.96654
6323 Au 0 LAT Au 0 0.000 196.96654
6324 Au 0 LAT Au 0 0.000 196.96654
6325 Au 0 LAT Au 0 0.000 196.96654
6326 Au 0 LAT Au 0 0.000 196.96654
6327 Au 0 LAT Au 0 0.000 196.96654
6328 Au 0 LAT Au 0 0.000 196.96654
6329 Au 0 LAT Au 0 0.000 196.96654
6330 Au 0 LAT Au 0 0.000 196.96654
6331 Au 0 LAT Au 0 0.000 196.96654
6332 Au 0 LAT Au 0 0.000 196.96654
6333 Au 0 LAT Au 0 0.000 196.96654
6334 Au 0 LAT Au 0 0.000 196.96654
6335 Au 0 LAT Au 0 0.000 196.96654
6336 Au 0 LAT Au 0 0.000 196.96654
6337 Au 0 LAT Au 0 0.000 196.96654
6338 Au 0 LAT Au 0 0.000 196.96654
6339 Au 0 LAT Au 0 0.000 196.96654
6340 Au 0 LAT Au 0 0.000 196.96654
6341 Au 0 LAT Au 0 0.000 196.96654
6342 Au 0 LAT Au 0 0.000 196.96654
6343 Au 0 LAT Au 0 0.000 196.96654
6344 Au 0 LAT Au 0 0.000 196.96654
6345 Au 0 LAT Au 0 0.000 196.96654
6346 Au 0 LAT Au 0 0.000 196.96654
6347 Au 0 LAT Au 0 0.000 196.96654
6348 Au 0 LAT Au 0 0.000 196.96654
6349 Au 0 LAT Au 0 0.000 196.96654
6350 Au 0 LAT Au 0 0.000 196.96654
6351 Au 0 LAT Au 0 0.000 196.96654
6352 Au 0 LAT Au 0 0.000 196.96654
6353 Au 0 LAT Au 0 0.000 196.96654
6354 Au 0 LAT Au 0 0.000 196.96654
6355 Au 0 LAT Au 0 0.000 196.96654
6356 Au 0 LAT Au 0 0.000 196.96654
6357 Au 0 LAT Au 0 0.000 196.96654
6358 Au 0 LAT Au 0 0.000 196.96654
6359 Au 0 LAT Au 0 0.000 196.96654
6360 Au 0 LAT Au 0 0.000 196.96654
6361 Au 0 LAT Au 0 0.000 196.96654
6362 Au 0 LAT Au 0 0.000 196.96654
6363 Au 0 LAT Au 0 0.000 196.96654
6364 Au 0 LAT Au 0 0.000 196.96654
6365 Au 0 LAT Au 0 0.000 196.96654
6366 Au 0 LAT Au 0 0.000 196.96654
6367 Au 0 LAT Au 0 0.000 196.96654
6368 Au 0 LAT Au 0 0.000 196.96654
6369 Au 0 LAT Au 0 0.000 196.96654
6370 Au 0 LAT Au 0 0.000 196.96654
6371 Au 0 LAT Au 0 0.000 196.96654
6372 Au 0 LAT Au 0 0.000 196.96654
6373 Au 0 LAT Au 0 0.000 196.96654
6374 Au 0 LAT Au 0 0.000 196.96654
6375 Au 0 LAT Au 0 0.000 196.96654
6376 Au 0 LAT Au 0 0.000 196.96654
6377 Au 0 LAT Au 0 0.000 196.96654
6378 Au 0 LAT Au 0 0.000 196.96654
6379 Au 0 LAT Au 0 0.000 196.96654
6380 Au 0 LAT Au 0 0.000 196.96654
6381 Au 0 LAT Au 0 0.000 196.96654
6382 Au 0 LAT Au 0 0.000 196.96654
6383 Au 0 LAT Au 0 0.000 196.96654
6384 Au 0 LAT Au 0 0.000 196.96654
6385 Au 0 LAT Au 0 0.000 196.96654
6386 Au 0 LAT Au 0 0.000 196.96654
6387 Au 0 LAT Au 0 0.000 196.96654
6388 Au 0 LAT Au 0 0.000 196.96654
6389 Au 0 LAT Au 0 0.000 196.96654
6390 Au 0 LAT Au 0 0.000 196.96654
6391 Au 0 LAT Au 0 0.000 196.96654
6392 Au 0 LAT Au 0 0.000 196.96654
6393 Au 0 LAT Au 0 0.000 196.96654
6394 Au 0 LAT Au 0 0.000 196.96654
6395 Au 0 LAT Au 0 0.000 196.96654
6396 Au 0 LAT Au 0 0.000 196.96654
6397 Au 0 LAT Au 0 0.000 196.96654
6398 Au 0 LAT Au 0 0.000 196.96654
6399 Au 0 LAT Au 0 0.000 196.96654
6400 Au 0 LAT Au 0 0.000 196.96654
6401 Au 0 LAT Au 0 0.000 196.96654
6402 Au 0 LAT Au 0 0.000 196.96654
6403 Au 0 LAT Au 0 0.000 196.96654
6404 Au 0 LAT Au 0 0.000 196.96654
6405 Au 0 LAT Au 0 0.000 196.96654
6406 Au 0 LAT Au 0 0.000 196.96654
6407 Au 0 LAT Au 0 0.000 196.96654
6408 Au 0 LAT Au 0 0.000 196.96654
6409 Au 0 LAT Au 0 0.000 196.96654
6410 Au 0 LAT Au 0 0.000 196.96654
6411 Au 0 LAT Au 0 0.000 196.96654
6412 Au 0 LAT Au 0 0.000 196.96654
6413 Au 0 LAT Au 0 0.000 196.96654
6414 Au 0 LAT Au 0 0.000 196.96654
6415 Au 0 LAT Au 0 0.000 196.96654
6416 Au 0 LAT Au 0 0.000 196.96654
6417 Au 0 LAT Au 0 0.000 196.96654
6418 Au 0 LAT Au 0 0.000 196.96654
6419 Au 0 LAT Au 0 0.000 196.96654
6420 Au 0 LAT Au 0 0.000 196.96654
6421 Au 0 LAT Au 0 0.000 196.96654
6422 Au 0 LAT Au 0 0.000 196.96654
6423 Au 0 LAT Au 0 0.000 196.96654
6424 Au 0 LAT Au 0 0.000 196.96654
6425 Au 0 LAT Au 0 0.000 196.96654
6426 Au 0 LAT Au 0 0.000 196.96654
6427 Au 0 LAT Au 0 0.000 196.96654
6428 Au 0 LAT Au 0 0.000 196.96654
6429 Au 0 LAT Au 0 0.000 196.96654
6430 Au 0 LAT Au 0 0.000 196.96654
6431 Au 0 LAT Au 0 0.000 196.96654
6432 Au 0 LAT Au 0 0.000 196.96654
6433 Au 0 LAT Au 0 0.000 196.96654
6434 Au 0 LAT Au 0 0.000 196.96654
6435 Au 0 LAT Au 0 0.000 196.96654
6436 Au 0 LAT Au 0 0.000 196.96654
6437 Au 0 LAT Au 0 0.000 196.96654
6438 Au 0 LAT Au 0 0.000 196.96654
6439 Au 0 LAT Au 0 0.000 196.96654
6440 Au 0 LAT Au 0 0.000 196.96654
6441 Au 0 LAT Au 0 0.000 196.96654
6442 Au 0 LAT Au 0 0.000 196.96654
6443 Au 0 LAT Au 0 0.000 196.96654
6444 Au 0 LAT Au 0 0.000 196.96654
6445 Au 0 LAT Au 0 0.000 196.96654
6446 Au 0 LAT Au 0 0.000 196.96654
6447 Au 0 LAT Au 0 0.000 196.96654
6448 Au 0 LAT Au 0 0.000 196.96654
6449 Au 0 LAT Au 0 0.000 196.96654
6450 Au 0 LAT Au 0 0.000 196.96654
6451 Au 0 LAT Au 0 0.000 196.96654
6452 Au 0 LAT Au 0 0.000 196.96654
6453 Au 0 LAT Au 0 0.000 196.96654
6454 Au 0 LAT Au 0 0.000 196.96654
6455 Au 0 LAT Au 0 0.000 196.96654
6456 Au 0 LAT Au 0 0.000 196.96654
6457 Au 0 LAT Au 0 0.000 196.96654
6458 Au 0 LAT Au 0 0.000 196.96654
6459 Au 0 LAT Au 0 0.000 196.96654
6460 Au 0 LAT Au 0 0.000 196.96654
6461 Au 0 LAT Au 0 0.000 196.96654
6462 Au 0 LAT Au 0 0.000 196.96654
6463 Au 0 LAT Au 0 0.000 196.96654
6464 Au 0 LAT Au 0 0.000 196.96654
6465 Au 0 LAT Au 0 0.000 196.96654
6466 Au 0 LAT Au 0 0.000 196.96654
6467 Au 0 LAT Au 0 0.000 196.96654
6468 Au 0 LAT Au 0 0.000 196.96654
6469 Au 0 LAT Au 0 0.000 196.96654
6470 Au 0 LAT Au 0 0.000 196.96654
6471 Au 0 LAT Au 0 0.000 196.96654
6472 Au 0 LAT Au 0 0.000 196.96654
6473 Au 0 LAT Au 0 0.000 196.96654
6474 Au 0 LAT Au 0 0.000 196.96654
6475 Au 0 LAT Au 0 0.000 196.96654
6476 Au 0 LAT Au 0 0.000 196.96654
6477 Au 0 LAT Au 0 0.000 196.96654
6478 Au 0 LAT Au 0 0.000 196.96654
6479 Au 0 LAT Au 0 0.000 196.96654
6480 Au 0 LAT Au 0 0.000 196.96654
6481 Au 0 LAT Au 0 0.000 196.96654
6482 Au 0 LAT Au 0 0.000 196.96654
6483 Au 0 LAT Au 0 0.000 196.96654
6484 Au 0 LAT Au 0 0.000 196.96654
6485 Au 0 LAT Au 0 0.000 196.96654
6486 Au 0 LAT Au 0 0.000 196.96654
6487 Au 0 LAT Au 0 0.000 196.96654
6488 Au 0 LAT Au 0 0.000 196.96654
6489 Au 0 LAT Au 0 0.000 196.96654
6490 Au 0 LAT Au 0 0.000 196.96654
6491 Au 0 LAT Au 0 0.000 196.96654
6492 Au 0 LAT Au 0 0.000 196.96654
6493 Au 0 LAT Au 0 0.000 196.96654
6494 Au 0 LAT Au 0 0.000 196.96654
6495 Au 0 LAT Au 0 0.000 196.96654
6496 Au 0 LAT Au 0 0.000 196.96654
6497 Au 0 LAT Au 0 0.000 196.96654
6498 Au 0 LAT Au 0 0.000 196.96654
6499 Au 0 LAT Au 0 0.000 196.96654
6500 Au 0 LAT Au 0 0.000 196.96654
6501 Au 0 LAT Au 0 0.000 196.96654
6502 Au 0 LAT Au 0 0.000 196.96654
6503 Au 0 LAT Au 0 0.000 196.96654
6504 Au 0 LAT Au 0 0.000 196.96654
6505 Au 0 LAT Au 0 0.000 196.96654
6506 Au 0 LAT Au 0 0.000 196.96654
6507 Au 0 LAT Au 0 0.000 196.96654
6508 Au 0 LAT Au 0 0.000 196.96654
6509 Au 0 LAT Au 0 0.000 196.96654
6510 Au 0 LAT Au 0 0.000 196.96654
6511 Au 0 LAT Au 0 0.000 196.96654
6512 Au 0 LAT Au 0 0.000 196.96654
6513 Au 0 LAT Au 0 0.000 196.96654
6514 Au 0 LAT Au 0 0.000 196.96654
6515 Au 0 LAT Au 0 0.000 196.96654
6516 Au 0 LAT Au 0 0.000 196.96654
6517 Au 0 LAT Au 0 0.000 196.96654
6518 Au 0 LAT Au 0 0.000 196.96654
6519 Au 0 LAT Au 0 0.000 196.96654
6520 Au 0 LAT Au 0 0.000 196.96654
6521 Au 0 LAT Au 0 0.000 196.96654
6522 Au 0 LAT Au 0 0.000 196.96654
6523 Au 0 LAT Au 0 0.000 196.96654
6524 Au 0 LAT Au 0 0.000 196.96654
6525 Au 0 LAT Au 0 0.000 196.96654
6526 Au 0 LAT Au 0 0.000 196.96654
6527 Au 0 LAT Au 0 0.000 196.96654
6528 Au 0 LAT Au 0 0.000 196.96654
6529 Au 0 LAT Au 0 0.000 196.96654
6530 Au 0 LAT Au 0 0.000 196.96654
6531 Au 0 LAT Au 0 0.000 196.96654
6532 Au 0 LAT Au 0 0.000 196.96654
6533 Au 0 LAT Au 0 0.000 196.96654
6534 Au 0 LAT Au 0 0.000 196.96654
6535 Au 0 LAT Au 0 0.000 196.96654
6536 Au 0 LAT Au 0 0.000 196.96654
6537 Au 0 LAT Au 0 0.000 196.96654
6538 Au 0 LAT Au 0 0.000 196.96654
6539 Au 0 LAT Au 0 0.000 196.96654
6540 Au 0 LAT Au 0 0.000 196.96654
6541 Au 0 LAT Au 0 0.000 196.96654
6542 Au 0 LAT Au 0 0.000 196.96654
6543 Au 0 LAT Au 0 0.000 196.96654
6544 Au 0 LAT Au 0 0.000 196.96654
6545 Au 0 LAT Au 0 0.000 196.96654
6546 Au 0 LAT Au 0 0.000 196.96654
6547 Au 0 LAT Au 0 0.000 196.96654
6548 Au 0 LAT Au 0 0.000 196.96654
6549 Au 0 LAT Au 0 0.000 196.96654
6550 Au 0 LAT Au 0 0.000 196.96654
6551 Au 0 LAT Au 0 0.000 196.96654
6552 Au 0 LAT Au 0 0.000 196.96654
6553 Au 0 LAT Au 0 0.000 196.96654
6554 Au 0 LAT Au 0 0.000 196.96654
6555 Au 0 LAT Au 0 0.000 196.96654
6556 Au 0 LAT Au 0 0.000 196.96654
6557 Au 0 LAT Au 0 0.000 196.96654
6558 Au 0 LAT Au 0 0.000 196.96654
6559 Au 0 LAT Au 0 0.000 196.96654
6560 Au 0 LAT Au 0 0.000 196.96654
6561 Au 0 LAT Au 0 0.000 196.96654
6562 Au 0 LAT Au 0 0.000 196.96654
6563 Au 0 LAT Au 0 0.000 196.96654
6564 Au 0 LAT Au 0 0.000 196.96654
6565 Au 0 LAT Au 0 0.000 196.96654
6566 Au 0 LAT Au 0 0.000 196.96654
6567 Au 0 LAT Au 0 0.000 196.96654
6568 Au 0 LAT Au 0 0.000 196.96654
6569 Au 0 LAT Au 0 0.000 196.96654
6570 Au 0 LAT Au 0 0.000 196.96654
6571 Au 0 LAT Au 0 0.000 196.96654
6572 Au 0 LAT Au 0 0.000 196.96654
6573 Au 0 LAT Au 0 0.000 196.96654
6574 Au 0 LAT Au 0 0.000 196.96654
6575 Au 0 LAT Au 0 0.000 196.96654
6576 Au 0 LAT Au 0 0.000 196.96654
6577 Au 0 LAT Au 0 0.000 196.96654
6578 Au 0 LAT Au 0 0.000 196.96654
6579 Au 0 LAT Au 0 0.000 196.96654
6580 Au 0 LAT Au 0 0.000 196.96654
6581 Au 0 LAT Au 0 0.000 196.96654
6582 Au 0 LAT Au 0 0.000 196.96654
6583 Au 0 LAT Au 0 0.000 196.96654
6584 Au 0 LAT Au 0 0.000 196.96654
6585 Au 0 LAT Au 0 0.000 196.96654
6586 Au 0 LAT Au 0 0.000 196.96654
6587 Au 0 LAT Au 0 0.000 196.96654
6588 Au 0 LAT Au 0 0.000 196.96654
6589 Au 0 LAT Au 0 0.000 196.96654
6590 Au 0 LAT Au 0 0.000 196.96654
6591 Au 0 LAT Au 0 0.000 196.96654
6592 Au 0 LAT Au 0 0.000 196.96654
6593 Au 0 LAT Au 0 0.000 196.96654
6594 Au 0 LAT Au 0 0.000 196.96654
6595 Au 0 LAT Au 0 0.000 196.96654
6596 Au 0 LAT Au 0 0.000 196.96654
6597 Au 0 LAT Au 0 0.000 196.96654
6598 Au 0 LAT Au 0 0.000 196.96654
6599 Au 0 LAT Au 0 0.000 196.96654
6600 Au 0 LAT Au 0 0.000 196.96654
6601 Au 0 LAT Au 0 0.000 196.96654
6602 Au 0 LAT Au 0 0.000 196.96654
6603 Au 0 LAT Au 0 0.000 196.96654
6604 Au 0 LAT Au 0 0.000 196.96654
6605 Au 0 LAT Au 0 0.000 196.96654
6606 Au 0 LAT Au 0 0.000 196.96654
6607 Au 0 LAT Au 0 0.000 196.96654
6608 Au 0 LAT Au 0 0.000 196.96654
6609 Au 0 LAT Au 0 0.000 196.96654
6610 Au 0 LAT Au 0 0.000 196.96654
6611 Au 0 LAT Au 0 0.000 196.96654
6612 Au 0 LAT Au 0 0.000 196.96654
6613 Au 0 LAT Au 0 0.000 196.96654
6614 Au 0 LAT Au 0 0.000 196.96654
6615 Au 0 LAT Au 0 0.000 196.96654
6616 Au 0 LAT Au 0 0.000 196.96654
6617 Au 0 LAT Au 0 0.000 196.96654
6618 Au 0 LAT Au 0 0.000 196.96654
6619 Au 0 LAT Au 0 0.000 196.96654
6620 Au 0 LAT Au 0 0.000 196.96654
6621 Au 0 LAT Au 0 0.000 196.96654
6622 Au 0 LAT Au 0 0.000 196.96654
6623 Au 0 LAT Au 0 0.000 196.96654
6624 Au 0 LAT Au 0 0.000 196.96654
6625 Au 0 LAT Au 0 0.000 196.96654
6626 Au 0 LAT Au 0 0.000 196.96654
6627 Au 0 LAT Au 0 0.000 196.96654
6628 Au 0 LAT Au 0 0.000 196.96654
6629 Au 0 LAT Au 0 0.000 196.96654
6630 Au 0 LAT Au 0 0.000 196.96654
6631 Au 0 LAT Au 0 0.000 196.96654
6632 Au 0 LAT Au 0 0.000 196.96654
6633 Au 0 LAT Au 0 0.000 196.96654
6634 Au 0 LAT Au 0 0.000 196.96654
6635 Au 0 LAT Au 0 0.000 196.96654
6636 Au 0 LAT Au 0 0.000 196.96654
6637 Au 0 LAT Au 0 0.000 196.96654
6638 Au 0 LAT Au 0 0.000 196.96654
6639 Au 0 LAT Au 0 0.000 196.96654
6640 Au 0 LAT Au 0 0.000 196.96654
6641 Au 0 LAT Au 0 0.000 196.96654
6642 Au 0 LAT Au 0 0.000 196.96654
6643 Au 0 LAT Au 0 0.000 196.96654
6644 Au 0 LAT Au 0 0.000 196.96654
6645 Au 0 LAT Au 0 0.000 196.96654
6646 Au 0 LAT Au 0 0.000 196.96654
6647 Au 0 LAT Au 0 0.000 196.96654
6648 Au 0 LAT Au 0 0.000 196.96654
6649 Au 0 LAT Au 0 0.000 196.96654
6650 Au 0 LAT Au 0 0.000 196.96654
6651 Au 0 LAT Au 0 0.000 196.96654
6652 Au 0 LAT Au 0 0.000 196.96654
6653 Au 0 LAT Au 0 0.000 196.96654
6654 Au 0 LAT Au 0 0.000 196.96654
6655 Au 0 LAT Au 0 0.000 196.96654
6656 Au 0 LAT Au 0 0.000 196.96654
6657 Au 0 LAT Au 0 0.000 196.96654
6658 Au 0 LAT Au 0 0.000 196.96654
6659 Au 0 LAT Au 0 0.000 196.96654
6660 Au 0 LAT Au 0 0.000 196.96654
6661 Au 0 LAT Au 0 0.000 196.96654
6662 Au 0 LAT Au 0 0.000 196.96654
6663 Au 0 LAT Au 0 0.000 196.96654
6664 Au 0 LAT Au 0 0.000 196.96654
6665 Au 0 LAT Au 0 0.000 196.96654
6666 Au 0 LAT Au 0 0.000 196.96654
6667 Au 0 LAT Au 0 0.000 196.96654
6668 Au 0 LAT Au 0 0.000 196.96654
6669 Au 0 LAT Au 0 0.000 196.96654
6670 Au 0 LAT Au 0 0.000 196.96654
6671 Au 0 LAT Au 0 0.000 196.96654
6672 Au 0 LAT Au 0 0.000 196.96654
6673 Au 0 LAT Au 0 0.000 196.96654
6674 Au 0 LAT Au 0 0.000 196.96654
6675 Au 0 LAT Au 0 0.000 196.96654
6676 Au 0 LAT Au 0 0.000 196.96654
6677 Au 0 LAT Au 0 0.000 196.96654
6678 Au 0 LAT Au 0 0.000 196.96654
6679 Au 0 LAT Au 0 0.000 196.96654
6680 Au 0 LAT Au 0 0.000 196.96654
6681 Au 0 LAT Au 0 0.000 196.96654
6682 Au 0 LAT Au 0 0.000 196.96654
6683 Au 0 LAT Au 0 0.000 196.96654
6684 Au 0 LAT Au 0 0.000 196.96654
6685 Au 0 LAT Au 0 0.000 196.96654
6686 Au 0 LAT Au 0 0.000 196.96654
6687 Au 0 LAT Au 0 0.000 196.96654
6688 Au 0 LAT Au 0 0.000 196.96654
6689 Au 0 LAT Au 0 0.000 196.96654
6690 Au 0 LAT Au 0 0.000 196.96654
6691 Au 0 LAT Au 0 0.000 196.96654
6692 Au 0 LAT Au 0 0.000 196.96654
6693 Au 0 LAT Au 0 0.000 196.96654
6694 Au 0 LAT Au 0 0.000 196.96654
6695 Au 0 LAT Au 0 0.000 196.96654
6696 Au 0 LAT Au 0 0.000 196.96654
6697 Au 0 LAT Au 0 0.000 196.96654
6698 Au 0 LAT Au 0 0.000 196.96654
6699 Au 0 LAT Au 0 0.000 196.96654
6700 Au 0 LAT Au 0 0.000 196.96654
6701 Au 0 LAT Au 0 0.000 196.96654
6702 Au 0 LAT Au 0 0.000 196.96654
6703 Au 0 LAT Au 0 0.000 196.96654
6704 Au 0 LAT Au 0 0.000 196.96654
6705 Au 0 LAT Au 0 0.000 196.96654
6706 Au 0 LAT Au 0 0.000 196.96654
6707 Au 0 LAT Au 0 0.000 196.96654
6708 Au 0 LAT Au 0 0.000 196.96654
6709 Au 0 LAT Au 0 0.000 196.96654
6710 Au 0 LAT Au 0 0.000 196.96654
6711 Au 0 LAT Au 0 0.000 196.96654
6712 Au 0 LAT Au 0 0.000 196.96654
6713 Au 0 LAT Au 0 0.000 196.96654
6714 Au 0 LAT Au 0 0.000 196.96654
6715 Au 0 LAT Au 0 0.000 196.96654
6716 Au 0 LAT Au 0 0.000 196.96654
6717 Au 0 LAT Au 0 0.000 196.96654
6718 Au 0 LAT Au 0 0.000 196.96654
6719 Au 0 LAT Au 0 0.000 196.96654
6720 Au 0 LAT Au 0 0.000 196.96654
6721 Au 0 LAT Au 0 0.000 196.96654
6722 Au 0 LAT Au 0 0.000 196.96654
6723 Au 0 LAT Au 0 0.000 196.96654
6724 Au 0 LAT Au 0 0.000 196.96654
6725 Au 0 LAT Au 0 0.000 196.96654
6726 Au 0 LAT Au 0 0.000 196.96654
6727 Au 0 LAT Au 0 0.000 196.96654
6728 Au 0 LAT Au 0 0.000 196.96654
6729 Au 0 LAT Au 0 0.000 196.96654
6730 Au 0 LAT Au 0 0.000 196.96654
6731 Au 0 LAT Au 0 0.000 196.96654
6732 Au 0 LAT Au 0 0.000 196.96654
6733 Au 0 LAT Au 0 0.000 196.96654
6734 Au 0 LAT Au 0 0.000 196.96654
6735 Au 0 LAT Au 0 0.000 196.96654
6736 Au 0 LAT Au 0 0.000 196.96654
6737 Au 0 LAT Au 0 0.000 196.96654
6738 Au 0 LAT Au 0 0.000 196.96654
6739 Au 0 LAT Au 0 0.000 196.96654
6740 Au 0 LAT Au 0 0.000 196.96654
6741 Au 0 LAT Au 0 0.000 196.96654
6742 Au 0 LAT Au 0 0.000 196.96654
6743 Au 0 LAT Au 0 0.000 196.96654
6744 Au 0 LAT Au 0 0.000 196.96654
6745 Au 0 LAT Au 0 0.000 196.96654
6746 Au 0 LAT Au 0 0.000 196.96654
6747 Au 0 LAT Au 0 0.000 196.96654
6748 Au 0 LAT Au 0 0.000 196.96654
6749 Au 0 LAT Au 0 0.000 196.96654
6750 Au 0 LAT Au 0 0.000 196.96654
6751 Au 0 LAT Au 0 0.000 196.96654
6752 Au 0 LAT Au 0 0.000 196.96654
6753 Au 0 LAT Au 0 0.000 196.96654
6754 Au 0 LAT Au 0 0.000 196.96654
6755 Au 0 LAT Au 0 0.000 196.96654
6756 Au 0 LAT Au 0 0.000 196.96654
6757 Au 0 LAT Au 0 0.000 196.96654
6758 Au 0 LAT Au 0 0.000 196.96654
6759 Au 0 LAT Au 0 0.000 196.96654
6760 Au 0 LAT Au 0 0.000 196.96654
6761 Au 0 LAT Au 0 0.000 196.96654
6762 Au 0 LAT Au 0 0.000 196.96654
6763 Au 0 LAT Au 0 0.000 196.96654
6764 Au 0 LAT Au 0 0.000 196.96654
6765 Au 0 LAT Au 0 0.000 196.96654
6766 Au 0 LAT Au 0 0.000 196.96654
6767 Au 0 LAT Au 0 0.000 196.96654
6768 Au 0 LAT Au 0 0.000 196.96654
6769 Au 0 LAT Au 0 0.000 196.96654
6770 Au 0 LAT Au 0 0.000 196.96654
6771 Au 0 LAT Au 0 0.000 196.96654
6772 Au 0 LAT Au 0 0.000 196.96654
6773 Au 0 LAT Au 0 0.000 196.96654
6774 Au 0 LAT Au 0 0.000 196.96654
6775 Au 0 LAT Au 0 0.000 196.96654
6776 Au 0 LAT Au 0 0.000 196.96654
6777 Au 0 LAT Au 0 0.000 196.96654
6778 Au 0 LAT Au 0 0.000 196.96654
6779 Au 0 LAT Au 0 0.000 196.96654
6780 Au 0 LAT Au 0 0.000 196.96654
6781 Au 0 LAT Au 0 0.000 196.96654
6782 Au 0 LAT Au 0 0.000 196.96654
6783 Au 0 LAT Au 0 0.000 196.96654
6784 Au 0 LAT Au 0 0.000 196.96654
6785 Au 0 LAT Au 0 0.000 196.96654
6786 Au 0 LAT Au 0 0.000 196.96654
6787 Au 0 LAT Au 0 0.000 196.96654
6788 Au 0 LAT Au 0 0.000 196.96654
6789 Au 0 LAT Au 0 0.000 196.96654
6790 Au 0 LAT Au 0 0.000 196.96654
6791 Au 0 LAT Au 0 0.000 196.96654
6792 Au 0 LAT Au 0 0.000 196.96654
6793 Au 0 LAT Au 0 0.000 196.96654
6794 Au 0 LAT Au 0 0.000 196.96654
6795 Au 0 LAT Au 0 0.000 196.96654
6796 Au 0 LAT Au 0 0.000 196.96654
6797 Au 0 LAT Au 0 0.000 196.96654
6798 Au 0 LAT Au 0 0.000 196.96654
6799 Au 0 LAT Au 0 0.000 196.96654
6800 Au 0 LAT Au 0 0.000 196.96654
6801 Au 0 LAT Au 0 0.000 196.96654
6802 Au 0 LAT Au 0 0.000 196.96654
6803 Au 0 LAT Au 0 0.000 196.96654
6804 Au 0 LAT Au 0 0.000 196.96654
6805 Au 0 LAT Au 0 0.000 196.96654
6806 Au 0 LAT Au 0 0.000 196.96654
6807 Au 0 LAT Au 0 0.000 196.96654
6808 Au 0 LAT Au 0 0.000 196.96654
6809 Au 0 LAT Au 0 0.000 196.96654
6810 Au 0 LAT Au 0 0.000 196.96654
6811 Au 0 LAT Au 0 0.000 196.96654
6812 Au 0 LAT Au 0 0.000 196.96654
6813 Au 0 LAT Au 0 0.000 196.96654
6814 Au 0 LAT Au 0 0.000 196.96654
6815 Au 0 LAT Au 0 0.000 196.96654
6816 Au 0 LAT Au 0 0.000 196.96654
6817 Au 0 LAT Au 0 0.000 196.96654
6818 Au 0 LAT Au 0 0.000 196.96654
6819 Au 0 LAT Au 0 0.000 196.96654
6820 Au 0 LAT Au 0 0.000 196.96654
6821 Au 0 LAT Au 0 0.000 196.96654
6822 Au 0 LAT Au 0 0.000 196.96654
6823 Au 0 LAT Au 0 0.000 196.96654
6824 Au 0 LAT Au 0 0.000 196.96654
6825 Au 0 LAT Au 0 0.000 196.96654
6826 Au 0 LAT Au 0 0.000 196.96654
6827 Au 0 LAT Au 0 0.000 196.96654
6828 Au 0 LAT Au 0 0.000 196.96654
6829 Au 0 LAT Au 0 0.000 196.96654
6830 Au 0 LAT Au 0 0.000 196.96654
6831 Au 0 LAT Au 0 0.000 196.96654
6832 Au 0 LAT Au 0 0.000 196.96654
6833 Au 0 LAT Au 0 0.000 196.96654
6834 Au 0 LAT Au 0 0.000 196.96654
6835 Au 0 LAT Au 0 0.000 196.96654
6836 Au 0 LAT Au 0 0.000 196.96654
6837 Au 0 LAT Au 0 0.000 196.96654
6838 Au 0 LAT Au 0 0.000 196.96654
6839 Au 0 LAT Au 0 0.000 196.96654
6840 Au 0 LAT Au 0 0.000 196.96654
6841 Au 0 LAT Au 0 0.000 196.96654
6842 Au 0 LAT Au 0 0.000 196.96654
6843 Au 0 LAT Au 0 0.000 196.96654
6844 Au 0 LAT Au 0 0.000 196.96654
6845 Au 0 LAT Au 0 0.000 196.96654
6846 Au 0 LAT Au 0 0.000 196.96654
6847 Au 0 LAT Au 0 0.000 196.96654
6848 Au 0 LAT Au 0 0.000 196.96654
6849 Au 0 LAT Au 0 0.000 196.96654
6850 Au 0 LAT Au 0 0.000 196.96654
6851 Au 0 LAT Au 0 0.000 196.96654
6852 Au 0 LAT Au 0 0.000 196.96654
6853 Au 0 LAT Au 0 0.000 196.96654
6854 Au 0 LAT Au 0 0.000 196.96654
6855 Au 0 LAT Au 0 0.000 196.96654
6856 Au 0 LAT Au 0 0.000 196.96654
6857 Au 0 LAT Au 0 0.000 196.96654
6858 Au 0 LAT Au 0 0.000 196.96654
6859 Au 0 LAT Au 0 0.000 196.96654
6860 Au 0 LAT Au 0 0.000 196.96654
6861 Au 0 LAT Au 0 0.000 196.96654
6862 Au 0 LAT Au 0 0.000 196.96654
6863 Au 0 LAT Au 0 0.000 196.96654
6864 Au 0 LAT Au 0 0.000 196.96654
6865 Au 0 LAT Au 0 0.000 196.96654
6866 Au 0 LAT Au 0 0.000 196.96654
6867 Au 0 LAT Au 0 0.000 196.96654
6868 Au 0 LAT Au 0 0.000 196.96654
6869 Au 0 LAT Au 0 0.000 196.96654
6870 Au 0 LAT Au 0 0.000 196.96654
6871 Au 0 LAT Au 0 0.000 196.96654
6872 Au 0 LAT Au 0 0.000 196.96654
6873 Au 0 LAT Au 0 0.000 196.96654
6874 Au 0 LAT Au 0 0.000 196.96654
6875 Au 0 LAT Au 0 0.000 196.96654
6876 Au 0 LAT Au 0 0.000 196.96654
6877 Au 0 LAT Au 0 0.000 196.96654
6878 Au 0 LAT Au 0 0.000 196.96654
6879 Au 0 LAT Au 0 0.000 196.96654
6880 Au 0 LAT Au 0 0.000 196.96654
6881 Au 0 LAT Au 0 0.000 196.96654
6882 Au 0 LAT Au 0 0.000 196.96654
6883 Au 0 LAT Au 0 0.000 196.96654
6884 Au 0 LAT Au 0 0.000 196.96654
6885 Au 0 LAT Au 0 0.000 196.96654
6886 Au 0 LAT Au 0 0.000 196.96654
6887 Au 0 LAT Au 0 0.000 196.96654
6888 Au 0 LAT Au 0 0.000 196.96654
6889 Au 0 LAT Au 0 0.000 196.96654
6890 Au 0 LAT Au 0 0.000 196.96654
6891 Au 0 LAT Au 0 0.000 196.96654
6892 Au 0 LAT Au 0 0.000 196.96654
6893 Au 0 LAT Au 0 0.000 196.96654
6894 Au 0 LAT Au 0 0.000 196.96654
6895 Au 0 LAT Au 0 0.000 196.96654
6896 Au 0 LAT Au 0 0.000 196.96654
6897 Au 0 LAT Au 0 0.000 196.96654
6898 Au 0 LAT Au 0 0.000 196.96654
6899 Au 0 LAT Au 0 0.000 196.96654
6900 Au 0 LAT Au 0 0.000 196.96654
6901 Au 0 LAT Au 0 0.000 196.96654
6902 Au 0 LAT Au 0 0.000 196.96654
6903 Au 0 LAT Au 0 0.000 196.96654
6904 Au 0 LAT Au 0 0.000 196.96654
6905 Au 0 LAT Au 0 0.000 196.96654
6906 Au 0 LAT Au 0 0.000 196.96654
6907 Au 0 LAT Au 0 0.000 196.96654
6908 Au 0 LAT Au 0 0.000 196.96654
6909 Au 0 LAT Au 0 0.000 196.96654
6910 Au 0 LAT Au 0 0.000 196.96654
6911 Au 0 LAT Au 0 0.000 196.96654
6912 Au 0 LAT Au 0 0.000 196.96654
6913 Au 0 LAT Au 0 0.000 196.96654
6914 Au 0 LAT Au 0 0.000 196.96654
6915 Au 0 LAT Au 0 0.000 196.96654
6916 Au 0 LAT Au 0 0.000 196.96654
6917 Au 0 LAT Au 0 0.000 196.96654
6918 Au 0 LAT Au 0 0.000 196.96654
6919 Au 0 LAT Au 0 0.000 196.96654
6920 Au 0 LAT Au 0 0.000 196.96654
6921 Au 0 LAT Au 0 0.000 196.96654
6922 Au 0 LAT Au 0 0.000 196.96654
6923 Au 0 LAT Au 0 0.000 196.96654
6924 Au 0 LAT Au 0 0.000 196.96654
6925 Au 0 LAT Au 0 0.000 196.96654
6926 Au 0 LAT Au 0 0.000 196.96654
6927 Au 0 LAT Au 0 0.000 196.96654
6928 Au 0 LAT Au 0 0.000 196.96654
6929 Au 0 LAT Au 0 0.000 196.96654
6930 Au 0 LAT Au 0 0.000 196.96654
6931 Au 0 LAT Au 0 0.000 196.96654
6932 Au 0 LAT Au 0 0.000 196.96654
6933 Au 0 LAT Au 0 0.000 196.96654
6934 Au 0 LAT Au 0 0.000 196.96654
6935 Au 0 LAT Au 0 0.000 196.96654
6936 Au 0 LAT Au 0 0.000 196.96654
6937 Au 0 LAT Au 0 0.000 196.96654
6938 Au 0 LAT Au 0 0.000 196.96654
6939 Au 0 LAT Au 0 0.000 196.96654
6940 Au 0 LAT Au 0 0.000 196.96654
6941 Au 0 LAT Au 0 0.000 196.96654
6942 Au 0 LAT Au 0 0.000 196.96654
6943 Au 0 LAT Au 0 0.000 196.96654
6944 Au 0 LAT Au 0 0.000 196.96654
6945 Au 0 LAT Au 0 0.000 196.96654
6946 Au 0 LAT Au 0 0.000 196.96654
6947 Au 0 LAT Au 0 0.000 196.96654
6948 Au 0 LAT Au 0 0.000 196.96654
6949 Au 0 LAT Au 0 0.000 196.96654
6950 Au 0 LAT Au 0 0.000 196.96654
6951 Au 0 LAT Au 0 0.000 196.96654
6952 Au 0 LAT Au 0 0.000 196.96654
6953 Au 0 LAT Au 0 0.000 196.96654
6954 Au 0 LAT Au 0 0.000 196.96654
6955 Au 0 LAT Au 0 0.000 196.96654
6956 Au 0 LAT Au 0 0.000 196.96654
6957 Au 0 LAT Au 0 0.000 196.96654
6958 Au 0 LAT Au 0 0.000 196.96654
6959 Au 0 LAT Au 0 0.000 196.96654
6960 Au 0 LAT Au 0 0.000 196.96654
6961 Au 0 LAT Au 0 0.000 196.96654
6962 Au 0 LAT Au 0 0.000 196.96654
6963 Au 0 LAT Au 0 0.000 196.96654
6964 Au 0 LAT Au 0 0.000 196.96654
6965 Au 0 LAT Au 0 0.000 196.96654
6966 Au 0 LAT Au 0 0.000 196.96654
6967 Au 0 LAT Au 0 0.000 196.96654
6968 Au 0 LAT Au 0 0.000 196.96654
6969 Au 0 LAT Au 0 0.000 196.96654
6970 Au 0 LAT Au 0 0.000 196.96654
6971 Au 0 LAT Au 0 0.000 196.96654
6972 Au 0 LAT Au 0 0.000 196.96654
6973 Au 0 LAT Au 0 0.000 196.96654
6974 Au 0 LAT Au 0 0.000 196.96654
6975 Au 0 LAT Au 0 0.000 196.96654
6976 Au 0 LAT Au 0 0.000 196.96654
6977 Au 0 LAT Au 0 0.000 196.96654
6978 Au 0 LAT Au 0 0.000 196.96654
6979 Au 0 LAT Au 0 0.000 196.96654
6980 Au 0 LAT Au 0 0.000 196.96654
6981 Au 0 LAT Au 0 0.000 196.96654
6982 Au 0 LAT Au 0 0.000 196.96654
6983 Au 0 LAT Au 0 0.000 196.96654
6984 Au 0 LAT Au 0 0.000 196.96654
6985 Au 0 LAT Au 0 0.000 196.96654
6986 Au 0 LAT Au 0 0.000 196.96654
6987 Au 0 LAT Au 0 0.000 196.96654
6988 Au 0 LAT Au 0 0.000 196.96654
6989 Au 0 LAT Au 0 0.000 196.96654
6990 Au 0 LAT Au 0 0.000 196.96654
6991 Au 0 LAT Au 0 0.000 196.96654
6992 Au 0 LAT Au 0 0.000 196.96654
6993 Au 0 LAT Au 0 0.000 196.96654
6994 Au 0 LAT Au 0 0.000 196.96654
6995 Au 0 LAT Au 0 0.000 196.96654
6996 Au 0 LAT Au 0 0.000 196.96654
6997 Au 0 LAT Au 0 0.000 196.96654
6998 Au 0 LAT Au 0 0.000 196.96654
6999 Au 0 LAT Au 0 0.000 196.96654
7000 Au 0 LAT Au 0 0.000 196.96654
7001 Au 0 LAT Au 0 0.000 196.96654
7002 Au 0 LAT Au 0 0.000 196.96654
7003 Au 0 LAT Au 0 0.000 196.96654
7004 Au 0 LAT Au 0 0.000 196.96654
7005 Au 0 LAT Au 0 0.000 196.96654
7006 Au 0 LAT Au 0 0.000 196.96654
7007 Au 0 LAT Au 0 0.000 196.96654
7008 Au 0 LAT Au 0 0.000 196.96654
7009 Au 0 LAT Au 0 0.000 196.96654
7010 Au 0 LAT Au 0 0.000 196.96654
7011 Au 0 LAT Au 0 0.000 196.96654
7012 Au 0 LAT Au 0 0.000 196.96654
7013 Au 0 LAT Au 0 0.000 196.96654
7014 Au 0 LAT Au 0 0.000 196.96654
7015 Au 0 LAT Au 0 0.000 196.96654
7016 Au 0 LAT Au 0 0.000 196.96654
7017 Au 0 LAT Au 0 0.000 196.96654
7018 Au 0 LAT Au 0 0.000 196.96654
7019 Au 0 LAT Au 0 0.000 196.96654
7020 Au 0 LAT Au 0 0.000 196.96654
7021 Au 0 LAT Au 0 0.000 196.96654
7022 Au 0 LAT Au 0 0.000 196.96654
7023 Au 0 LAT Au 0 0.000 196.96654
7024 Au 0 LAT Au 0 0.000 196.96654
7025 Au 0 LAT Au 0 0.000 196.96654
7026 Au 0 LAT Au 0 0.000 196.96654
7027 Au 0 LAT Au 0 0.000 196.96654
7028 Au 0 LAT Au 0 0.000 196.96654
7029 Au 0 LAT Au 0 0.000 196.96654
7030 Au 0 LAT Au 0 0.000 196.96654
7031 Au 0 LAT Au 0 0.000 196.96654
7032 Au 0 LAT Au 0 0.000 196.96654
7033 Au 0 LAT Au 0 0.000 196.96654
7034 Au 0 LAT Au 0 0.000 196.96654
7035 Au 0 LAT Au 0 0.000 196.96654
7036 Au 0 LAT Au 0 0.000 196.96654
7037 Au 0 LAT Au 0 0.000 196.96654
7038 Au 0 LAT Au 0 0.000 196.96654
7039 Au 0 LAT Au 0 0.000 196.96654
7040 Au 0 LAT Au 0 0.000 196.96654
7041 Au 0 LAT Au 0 0.000 196.96654
7042 Au 0 LAT Au 0 0.000 196.96654
7043 Au 0 LAT Au 0 0.000 196.96654
7044 Au 0 LAT Au 0 0.000 196.96654
7045 Au 0 LAT Au 0 0.000 196.96654
7046 Au 0 LAT Au 0 0.000 196.96654
7047 Au 0 LAT Au 0 0.000 196.96654
7048 Au 0 LAT Au 0 0.000 196.96654
7049 Au 0 LAT Au 0 0.000 196.96654
7050 Au 0 LAT Au 0 0.000 196.96654
7051 Au 0 LAT Au 0 0.000 196.96654
7052 Au 0 LAT Au 0 0.000 196.96654
7053 Au 0 LAT Au 0 0.000 196.96654
7054 Au 0 LAT Au 0 0.000 196.96654
7055 Au 0 LAT Au 0 0.000 196.96654
7056 Au 0 LAT Au 0 0.000 196.96654
7057 Au 0 LAT Au 0 0.000 196.96654
7058 Au 0 LAT Au 0 0.000 196.96654
7059 Au 0 LAT Au 0 0.000 196.96654
7060 Au 0 LAT Au 0 0.000 196.96654
7061 Au 0 LAT Au 0 0.000 196.96654
7062 Au 0 LAT Au 0 0.000 196.96654
7063 Au 0 LAT Au 0 0.000 196.96654
7064 Au 0 LAT Au 0 0.000 196.96654
7065 Au 0 LAT Au 0 0.000 196.96654
7066 Au 0 LAT Au 0 0.000 196.96654
7067 Au 0 LAT Au 0 0.000 196.96654
7068 Au 0 LAT Au 0 0.000 196.96654
7069 Au 0 LAT Au 0 0.000 196.96654
7070 Au 0 LAT Au 0 0.000 196.96654
7071 Au 0 LAT Au 0 0.000 196.96654
7072 Au 0 LAT Au 0 0.000 196.96654
7073 Au 0 LAT Au 0 0.000 196.96654
7074 Au 0 LAT Au 0 0.000 196.96654
7075 Au 0 LAT Au 0 0.000 196.96654
7076 Au 0 LAT Au 0 0.000 196.96654
7077 Au 0 LAT Au 0 0.000 196.96654
7078 Au 0 LAT Au 0 0.000 196.96654
7079 Au 0 LAT Au 0 0.000 196.96654
7080 Au 0 LAT Au 0 0.000 196.96654
7081 Au 0 LAT Au 0 0.000 196.96654
7082 Au 0 LAT Au 0 0.000 196.96654
7083 Au 0 LAT Au 0 0.000 196.96654
7084 Au 0 LAT Au 0 0.000 196.96654
7085 Au 0 LAT Au 0 0.000 196.96654
7086 Au 0 LAT Au 0 0.000 196.96654
7087 Au 0 LAT Au 0 0.000 196.96654
7088 Au 0 LAT Au 0 0.000 196.96654
7089 Au 0 LAT Au 0 0.000 196.96654
7090 Au 0 LAT Au 0 0.000 196.96654
7091 Au 0 LAT Au 0 0.000 196.96654
7092 Au 0 LAT Au 0 0.000 196.96654
7093 Au 0 LAT Au 0 0.000 196.96654
7094 Au 0 LAT Au 0 0.000 196.96654
7095 Au 0 LAT Au 0 0.000 196.96654
7096 Au 0 LAT Au 0 0.000 196.96654
7097 Au 0 LAT Au 0 0.000 196.96654
7098 Au 0 LAT Au 0 0.000 196.96654
7099 Au 0 LAT Au 0 0.000 196.96654
7100 Au 0 LAT Au 0 0.000 196.96654
7101 Au 0 LAT Au 0 0.000 196.96654
7102 Au 0 LAT Au 0 0.000 196.96654
7103 Au 0 LAT Au 0 0.000 196.96654
7104 Au 0 LAT Au 0 0.000 196.96654
7105 Au 0 LAT Au 0 0.000 196.96654
7106 Au 0 LAT Au 0 0.000 196.96654
7107 Au 0 LAT Au 0 0.000 196.96654
7108 Au 0 LAT Au 0 0.000 196.96654
7109 Au 0 LAT Au 0 0.000 196.96654
7110 Au 0 LAT Au 0 0.000 196.96654
7111 Au 0 LAT Au 0 0.000 196.96654
7112 Au 0 LAT Au 0 0.000 196.96654
7113 Au 0 LAT Au 0 0.000 196.96654
7114 Au 0 LAT Au 0 0.000 196.96654
7115 Au 0 LAT Au 0 0.000 196.96654
7116 Au 0 LAT Au 0 0.000 196.96654
7117 Au 0 LAT Au 0 0.000 196.96654
7118 Au 0 LAT Au 0 0.000 196.96654
7119 Au 0 LAT Au 0 0.000 196.96654
7120 Au 0 LAT Au 0 0.000 196.96654
7121 Au 0 LAT Au 0 0.000 196.96654
7122 Au 0 LAT Au 0 0.000 196.96654
7123 Au 0 LAT Au 0 0.000 196.96654
7124 Au 0 LAT Au 0 0.000 196.96654
7125 Au 0 LAT Au 0 0.000 196.96654
7126 Au 0 LAT Au 0 0.000 196.96654
7127 Au 0 LAT Au 0 0.000 196.96654
7128 Au 0 LAT Au 0 0.000 196.96654
7129 Au 0 LAT Au 0 0.000 196.96654
7130 Au 0 LAT Au 0 0.000 196.96654
7131 Au 0 LAT Au 0 0.000 196.96654
7132 Au 0 LAT Au 0 0.000 196.96654
7133 Au 0 LAT Au 0 0.000 196.96654
7134 Au 0 LAT Au 0 0.000 196.96654
7135 Au 0 LAT Au 0 0.000 196.96654
7136 Au 0 LAT Au 0 0.000 196.96654
7137 Au 0 LAT Au 0 0.000 196.96654
7138 Au 0 LAT Au 0 0.000 196.96654
7139 Au 0 LAT Au 0 0.000 196.96654
7140 Au 0 LAT Au 0 0.000 196.96654
7141 Au 0 LAT Au 0 0.000 196.96654
7142 Au 0 LAT Au 0 0.000 196.96654
7143 Au 0 LAT Au 0 0.000 196.96654
7144 Au 0 LAT Au 0 0.000 196.96654
7145 Au 0 LAT Au 0 0.000 196.96654
7146 Au 0 LAT Au 0 0.000 196.96654
7147 Au 0 LAT Au 0 0.000 196.96654
7148 Au 0 LAT Au 0 0.000 196.96654
7149 Au 0 LAT Au 0 0.000 196.96654
7150 Au 0 LAT Au 0 0.000 196.96654
7151 Au 0 LAT Au 0 0.000 196.96654
7152 Au 0 LAT Au 0 0.000 196.96654
7153 Au 0 LAT Au 0 0.000 196.96654
7154 Au 0 LAT Au 0 0.000 196.96654
7155 Au 0 LAT Au 0 0.000 196.96654
7156 Au 0 LAT Au 0 0.000 196.96654
7157 Au 0 LAT Au 0 0.000 196.96654
7158 Au 0 LAT Au 0 0.000 196.96654
7159 Au 0 LAT Au 0 0.000 196.96654
7160 Au 0 LAT Au 0 0.000 196.96654
7161 Au 0 LAT Au 0 0.000 196.96654
7162 Au 0 LAT Au 0 0.000 196.96654
7163 Au 0 LAT Au 0 0.000 196.96654
7164 Au 0 LAT Au 0 0.000 196.96654
7165 Au 0 LAT Au 0 0.000 196.96654
7166 Au 0 LAT Au 0 0.000 196.96654
7167 Au 0 LAT Au 0 0.000 196.96654
7168 Au 0 LAT Au 0 0.000 196.96654
7169 Au 0 LAT Au 0 0.000 196.96654
7170 Au 0 LAT Au 0 0.000 196.96654
7171 Au 0 LAT Au 0 0.000 196.96654
7172 Au 0 LAT Au 0 0.000 196.96654
7173 Au 0 LAT Au 0 0.000 196.96654
7174 Au 0 LAT Au 0 0.000 196.96654
7175 Au 0 LAT Au 0 0.000 196.96654
7176 Au 0 LAT Au 0 0.000 196.96654
7177 Au 0 LAT Au 0 0.000 196.96654
7178 Au 0 LAT Au 0 0.000 196.96654
7179 Au 0 LAT Au 0 0.000 196.96654
7180 Au 0 LAT Au 0 0.000 196.96654
7181 Au 0 LAT Au 0 0.000 196.96654
7182 Au 0 LAT Au 0 0.000 196.96654
7183 Au 0 LAT Au 0 0.000 196.96654
7184 Au 0 LAT Au 0 0.000 196.96654
7185 Au 0 LAT Au 0 0.000 196.96654
7186 Au 0 LAT Au 0 0.000 196.96654
7187 Au 0 LAT Au 0 0.000 196.96654
7188 Au 0 LAT Au 0 0.000 196.96654
7189 Au 0 LAT Au 0 0.000 196.96654
7190 Au 0 LAT Au 0 0.000 196.96654
7191 Au 0 LAT Au 0 0.000 196.96654
7192 Au 0 LAT Au 0 0.000 196.96654
7193 Au 0 LAT Au 0 0.000 196.96654
7194 Au 0 LAT Au 0 0.000 196.96654
7195 Au 0 LAT Au 0 0.000 196.96654
7196 Au 0 LAT Au 0 0.000 196.96654
7197 Au 0 LAT Au 0 0.000 196.96654
7198 Au 0 LAT Au 0 0.000 196.96654
7199 Au 0 LAT Au 0 0.000 196.96654
7200 Au 0 LAT Au 0 0.000 196.96654
7201 Au 0 LAT Au 0 0.000 196.96654
7202 Au 0 LAT Au 0 0.000 196.96654
7203 Au 0 LAT Au 0 0.000 196.96654
7204 Au 0 LAT Au 0 0.000 196.96654
7205 Au 0 LAT Au 0 0.000 196.96654
7206 Au 0 LAT Au 0 0.000 196.96654
7207 Au 0 LAT Au 0 0.000 196.96654
7208 Au 0 LAT Au 0 0.000 196.96654
7209 Au 0 LAT Au 0 0.000 196.96654
7210 Au 0 LAT Au 0 0.000 196.96654
7211 Au 0 LAT Au 0 0.000 196.96654
7212 Au 0 LAT Au 0 0.000 196.96654
7213 Au 0 LAT Au 0 0.000 196.96654
7214 Au 0 LAT Au 0 0.000 196.96654
7215 Au 0 LAT Au 0 0.000 196.96654
7216 Au 0 LAT Au 0 0.000 196.96654
7217 Au 0 LAT Au 0 0.000 196.96654
7218 Au 0 LAT Au 0 0.000 196.96654
7219 Au 0 LAT Au 0 0.000 196.96654
7220 Au 0 LAT Au 0 0.000 196.96654
7221 Au 0 LAT Au 0 0.000 196.96654
7222 Au 0 LAT Au 0 0.000 196.96654
7223 Au 0 LAT Au 0 0.000 196.96654
7224 Au 0 LAT Au 0 0.000 196.96654
7225 Au 0 LAT Au 0 0.000 196.96654
7226 Au 0 LAT Au 0 0.000 196.96654
7227 Au 0 LAT Au 0 0.000 196.96654
7228 Au 0 LAT Au 0 0.000 196.96654
7229 Au 0 LAT Au 0 0.000 196.96654
7230 Au 0 LAT Au 0 0.000 196.96654
7231 Au 0 LAT Au 0 0.000 196.96654
7232 Au 0 LAT Au 0 0.000 196.96654
7233 Au 0 LAT Au 0 0.000 196.96654
7234 Au 0 LAT Au 0 0.000 196.96654
7235 Au 0 LAT Au 0 0.000 196.96654
7236 Au 0 LAT Au 0 0.000 196.96654
7237 Au 0 LAT Au 0 0.000 196.96654
7238 Au 0 LAT Au 0 0.000 196.96654
7239 Au 0 LAT Au 0 0.000 196.96654
7240 Au 0 LAT Au 0 0.000 196.96654
7241 Au 0 LAT Au 0 0.000 196.96654
7242 Au 0 LAT Au 0 0.000 196.96654
7243 Au 0 LAT Au 0 0.000 196.96654
7244 Au 0 LAT Au 0 0.000 196.96654
7245 Au 0 LAT Au 0 0.000 196.96654
7246 Au 0 LAT Au 0 0.000 196.96654
7247 Au 0 LAT Au 0 0.000 196.96654
7248 Au 0 LAT Au 0 0.000 196.96654
7249 Au 0 LAT Au 0 0.000 196.96654
7250 Au 0 LAT Au 0 0.000 196.96654
7251 Au 0 LAT Au 0 0.000 196.96654
7252 Au 0 LAT Au 0 0.000 196.96654
7253 Au 0 LAT Au 0 0.000 196.96654
7254 Au 0 LAT Au 0 0.000 196.96654
7255 Au 0 LAT Au 0 0.000 196.96654
7256 Au 0 LAT Au 0 0.000 196.96654
7257 Au 0 LAT Au 0 0.000 196.96654
7258 Au 0 LAT Au 0 0.000 196.96654
7259 Au 0 LAT Au 0 0.000 196.96654
7260 Au 0 LAT Au 0 0.000 196.96654
7261 Au 0 LAT Au 0 0.000 196.96654
7262 Au 0 LAT Au 0 0.000 196.96654
7263 Au 0 LAT Au 0 0.000 196.96654
7264 Au 0 LAT Au 0 0.000 196.96654
7265 Au 0 LAT Au 0 0.000 196.96654
7266 Au 0 LAT Au 0 0.000 196.96654
7267 Au 0 LAT Au 0 0.000 196.96654
7268 Au 0 LAT Au 0 0.000 196.96654
7269 Au 0 LAT Au 0 0.000 196.96654
7270 Au 0 LAT Au 0 0.000 196.96654
7271 Au 0 LAT Au 0 0.000 196.96654
7272 Au 0 LAT Au 0 0.000 196.96654
7273 Au 0 LAT Au 0 0.000 196.96654
7274 Au 0 LAT Au 0 0.000 196.96654
7275 Au 0 LAT Au 0 0.000 196.96654
7276 Au 0 LAT Au 0 0.000 196.96654
7277 Au 0 LAT Au 0 0.000 196.96654
7278 Au 0 LAT Au 0 0.000 196.96654
7279 Au 0 LAT Au 0 0.000 196.96654
7280 Au 0 LAT Au 0 0.000 196.96654
7281 Au 0 LAT Au 0 0.000 196.96654
7282 Au 0 LAT Au 0 0.000 196.96654
7283 Au 0 LAT Au 0 0.000 196.96654
7284 Au 0 LAT Au 0 0.000 196.96654
7285 Au 0 LAT Au 0 0.000 196.96654
7286 Au 0 LAT Au 0 0.000 196.96654
7287 Au 0 LAT Au 0 0.000 196.96654
7288 Au 0 LAT Au 0 0.000 196.96654
7289 Au 0 LAT Au 0 0.000 196.96654
7290 Au 0 LAT Au 0 0.000 196.96654
7291 Au 0 LAT Au 0 0.000 196.96654
7292 Au 0 LAT Au 0 0.000 196.96654
7293 Au 0 LAT Au 0 0.000 196.96654
7294 Au 0 LAT Au 0 0.000 196.96654
7295 Au 0 LAT Au 0 0.000 196.96654
7296 Au 0 LAT Au 0 0.000 196.96654
7297 Au 0 LAT Au 0 0.000 196.96654
7298 Au 0 LAT Au 0 0.000 196.96654
7299 Au 0 LAT Au 0 0.000 196.96654
7300 Au 0 LAT Au 0 0.000 196.96654
7301 Au 0 LAT Au 0 0.000 196.96654
7302 Au 0 LAT Au 0 0.000 196.96654
7303 Au 0 LAT Au 0 0.000 196.96654
7304 Au 0 LAT Au 0 0.000 196.96654
7305 Au 0 LAT Au 0 0.000 196.96654
7306 Au 0 LAT Au 0 0.000 196.96654
7307 Au 0 LAT Au 0 0.000 196.96654
7308 Au 0 LAT Au 0 0.000 196.96654
7309 Au 0 LAT Au 0 0.000 196.96654
7310 Au 0 LAT Au 0 0.000 196.96654
7311 Au 0 LAT Au 0 0.000 196.96654
7312 Au 0 LAT Au 0 0.000 196.96654
7313 Au 0 LAT Au 0 0.000 196.96654
7314 Au 0 LAT Au 0 0.000 196.96654
7315 Au 0 LAT Au 0 0.000 196.96654
7316 Au 0 LAT Au 0 0.000 196.96654
7317 Au 0 LAT Au 0 0.000 196.96654
7318 Au 0 LAT Au 0 0.000 196.96654
7319 Au 0 LAT Au 0 0.000 196.96654
7320 Au 0 LAT Au 0 0.000 196.96654
7321 Au 0 LAT Au 0 0.000 196.96654
7322 Au 0 LAT Au 0 0.000 196.96654
7323 Au 0 LAT Au 0 0.000 196.96654
7324 Au 0 LAT Au 0 0.000 196.96654
7325 Au 0 LAT Au 0 0.000 196.96654
7326 Au 0 LAT Au 0 0.000 196.96654
7327 Au 0 LAT Au 0 0.000 196.96654
7328 Au 0 LAT Au 0 0.000 196.96654
7329 Au 0 LAT Au 0 0.000 196.96654
7330 Au 0 LAT Au 0 0.000 196.96654
7331 Au 0 LAT Au 0 0.000 196.96654
7332 Au 0 LAT Au 0 0.000 196.96654
7333 Au 0 LAT Au 0 0.000 196.96654
7334 Au 0 LAT Au 0 0.000 196.96654
7335 Au 0 LAT Au 0 0.000 196.96654
7336 Au 0 LAT Au 0 0.000 196.96654
7337 Au 0 LAT Au 0 0.000 196.96654
7338 Au 0 LAT Au 0 0.000 196.96654
7339 Au 0 LAT Au 0 0.000 196.96654
7340 Au 0 LAT Au 0 0.000 196.96654
7341 Au 0 LAT Au 0 0.000 196.96654
7342 Au 0 LAT Au 0 0.000 196.96654
7343 Au 0 LAT Au 0 0.000 196.96654
7344 Au 0 LAT Au 0 0.000 196.96654
7345 Au 0 LAT Au 0 0.000 196.96654
7346 Au 0 LAT Au 0 0.000 196.96654
7347 Au 0 LAT Au 0 0.000 196.96654
7348 Au 0 LAT Au 0 0.000 196.96654
7349 Au 0 LAT Au 0 0.000 196.96654
7350 Au 0 LAT Au 0 0.000 196.96654
7351 Au 0 LAT Au 0 0.000 196.96654
7352 Au 0 LAT Au 0 0.000 196.96654
7353 Au 0 LAT Au 0 0.000 196.96654
7354 Au 0 LAT Au 0 0.000 196.96654
7355 Au 0 LAT Au 0 0.000 196.96654
7356 Au 0 LAT Au 0 0.000 196.96654
7357 Au 0 LAT Au 0 0.000 196.96654
7358 Au 0 LAT Au 0 0.000 196.96654
7359 Au 0 LAT Au 0 0.000 196.96654
7360 Au 0 LAT Au 0 0.000 196.96654
7361 Au 0 LAT Au 0 0.000 196.96654
7362 Au 0 LAT Au 0 0.000 196.96654
7363 Au 0 LAT Au 0 0.000 196.96654
7364 Au 0 LAT Au 0 0.000 196.96654
7365 Au 0 LAT Au 0 0.000 196.96654
7366 Au 0 LAT Au 0 0.000 196.96654
7367 Au 0 LAT Au 0 0.000 196.96654
7368 Au 0 LAT Au 0 0.000 196.96654
7369 Au 0 LAT Au 0 0.000 196.96654
7370 Au 0 LAT Au 0 0.000 196.96654
7371 Au 0 LAT Au 0 0.000 196.96654
7372 Au 0 LAT Au 0 0.000 196.96654
7373 Au 0 LAT Au 0 0.000 196.96654
7374 Au 0 LAT Au 0 0.000 196.96654
7375 Au 0 LAT Au 0 0.000 196.96654
7376 Au 0 LAT Au 0 0.000 196.96654
7377 Au 0 LAT Au 0 0.000 196.96654
7378 Au 0 LAT Au 0 0.000 196.96654
7379 Au 0 LAT Au 0 0.000 196.96654
7380 Au 0 LAT Au 0 0.000 196.96654
7381 Au 0 LAT Au 0 0.000 196.96654
7382 Au 0 LAT Au 0 0.000 196.96654
7383 Au 0 LAT Au 0 0.000 196.96654
7384 Au 0 LAT Au 0 0.000 196.96654
7385 Au 0 LAT Au 0 0.000 196.96654
7386 Au 0 LAT Au 0 0.000 196.96654
7387 Au 0 LAT Au 0 0.000 196.96654
7388 Au 0 LAT Au 0 0.000 196.96654
7389 Au 0 LAT Au 0 0.000 196.96654
7390 Au 0 LAT Au 0 0.000 196.96654
7391 Au 0 LAT Au 0 0.000 196.96654
7392 Au 0 LAT Au 0 0.000 196.96654
7393 Au 0 LAT Au 0 0.000 196.96654
7394 Au 0 LAT Au 0 0.000 196.96654
7395 Au 0 LAT Au 0 0.000 196.96654
7396 Au 0 LAT Au 0 0.000 196.96654
7397 Au 0 LAT Au 0 0.000 196.96654
7398 Au 0 LAT Au 0 0.000 196.96654
7399 Au 0 LAT Au 0 0.000 196.96654
7400 Au 0 LAT Au 0 0.000 196.96654
7401 Au 0 LAT Au 0 0.000 196.96654
7402 Au 0 LAT Au 0 0.000 196.96654
7403 Au 0 LAT Au 0 0.000 196.96654
7404 Au 0 LAT Au 0 0.000 196.96654
7405 Au 0 LAT Au 0 0.000 196.96654
7406 Au 0 LAT Au 0 0.000 196.96654
7407 Au 0 LAT Au 0 0.000 196.96654
7408 Au 0 LAT Au 0 0.000 196.96654
7409 Au 0 LAT Au 0 0.000 196.96654
7410 Au 0 LAT Au 0 0.000 196.96654
7411 Au 0 LAT Au 0 0.000 196.96654
7412 Au 0 LAT Au 0 0.000 196.96654
7413 Au 0 LAT Au 0 0.000 196.96654
7414 Au 0 LAT Au 0 0.000 196.96654
7415 Au 0 LAT Au 0 0.000 196.96654
7416 Au 0 LAT Au 0 0.000 196.96654
7417 Au 0 LAT Au 0 0.000 196.96654
7418 Au 0 LAT Au 0 0.000 196.96654
7419 Au 0 LAT Au 0 0.000 196.96654
7420 Au 0 LAT Au 0 0.000 196.96654
7421 Au 0 LAT Au 0 0.000 196.96654
7422 Au 0 LAT Au 0 0.000 196.96654
7423 Au 0 LAT Au 0 0.000 196.96654
7424 Au 0 LAT Au 0 0.000 196.96654
7425 Au 0 LAT Au 0 0.000 196.96654
7426 Au 0 LAT Au 0 0.000 196.96654
7427 Au 0 LAT Au 0 0.000 196.96654
7428 Au 0 LAT Au 0 0.000 196.96654
7429 Au 0 LAT Au 0 0.000 196.96654
7430 Au 0 LAT Au 0 0.000 196.96654
7431 Au 0 LAT Au 0 0.000 196.96654
7432 Au 0 LAT Au 0 0.000 196.96654
7433 Au 0 LAT Au 0 0.000 196.96654
7434 Au 0 LAT Au 0 0.000 196.96654
7435 Au 0 LAT Au 0 0.000 196.96654
7436 Au 0 LAT Au 0 0.000 196.96654
7437 Au 0 LAT Au 0 0.000 196.96654
7438 Au 0 LAT Au 0 0.000 196.96654
7439 Au 0 LAT Au 0 0.000 196.96654
7440 Au 0 LAT Au 0 0.000 196.96654
7441 Au 0 LAT Au 0 0.000 196.96654
7442 Au 0 LAT Au 0 0.000 196.96654
7443 Au 0 LAT Au 0 0.000 196.96654
7444 Au 0 LAT Au 0 0.000 196.96654
7445 Au 0 LAT Au 0 0.000 196.96654
7446 Au 0 LAT Au 0 0.000 196.96654
7447 Au 0 LAT Au 0 0.000 196.96654
7448 Au 0 LAT Au 0 0.000 196.96654
7449 Au 0 LAT Au 0 0.000 196.96654
7450 Au 0 LAT Au 0 0.000 196.96654
7451 Au 0 LAT Au 0 0.000 196.96654
7452 Au 0 LAT Au 0 0.000 196.96654
7453 Au 0 LAT Au 0 0.000 196.96654
7454 Au 0 LAT Au 0 0.000 196.96654
7455 Au 0 LAT Au 0 0.000 196.96654
7456 Au 0 LAT Au 0 0.000 196.96654
7457 Au 0 LAT Au 0 0.000 196.96654
7458 Au 0 LAT Au 0 0.000 196.96654
7459 Au 0 LAT Au 0 0.000 196.96654
7460 Au 0 LAT Au 0 0.000 196.96654
7461 Au 0 LAT Au 0 0.000 196.96654
7462 Au 0 LAT Au 0 0.000 196.96654
7463 Au 0 LAT Au 0 0.000 196.96654
7464 Au 0 LAT Au 0 0.000 196.96654
7465 Au 0 LAT Au 0 0.000 196.96654
7466 Au 0 LAT Au 0 0.000 196.96654
7467 Au 0 LAT Au 0 0.000 196.96654
7468 Au 0 LAT Au 0 0.000 196.96654
7469 Au 0 LAT Au 0 0.000 196.96654
7470 Au 0 LAT Au 0 0.000 196.96654
7471 Au 0 LAT Au 0 0.000 196.96654
7472 Au 0 LAT Au 0 0.000 196.96654
7473 Au 0 LAT Au 0 0.000 196.96654
7474 Au 0 LAT Au 0 0.000 196.96654
7475 Au 0 LAT Au 0 0.000 196.96654
7476 Au 0 LAT Au 0 0.000 196.96654
7477 Au 0 LAT Au 0 0.000 196.96654
7478 Au 0 LAT Au 0 0.000 196.96654
7479 Au 0 LAT Au 0 0.000 196.96654
7480 Au 0 LAT Au 0 0.000 196.96654
7481 Au 0 LAT Au 0 0.000 196.96654
7482 Au 0 LAT Au 0 0.000 196.96654
7483 Au 0 LAT Au 0 0.000 196.96654
7484 Au 0 LAT Au 0 0.000 196.96654
7485 Au 0 LAT Au 0 0.000 196.96654
7486 Au 0 LAT Au 0 0.000 196.96654
7487 Au 0 LAT Au 0 0.000 196.96654
7488 Au 0 LAT Au 0 0.000 196.96654
7489 Au 0 LAT Au 0 0.000 196.96654
7490 Au 0 LAT Au 0 0.000 196.96654
7491 Au 0 LAT Au 0 0.000 196.96654
7492 Au 0 LAT Au 0 0.000 196.96654
7493 Au 0 LAT Au 0 0.000 196.96654
7494 Au 0 LAT Au 0 0.000 196.96654
7495 Au 0 LAT Au 0 0.000 196.96654
7496 Au 0 LAT Au 0 0.000 196.96654
7497 Au 0 LAT Au 0 0.000 196.96654
7498 Au 0 LAT Au 0 0.000 196.96654
7499 Au 0 LAT Au 0 0.000 196.96654
7500 Au 0 LAT Au 0 0.000 196.96654
7501 Au 0 LAT Au 0 0.000 196.96654
7502 Au 0 LAT Au 0 0.000 196.96654
7503 Au 0 LAT Au 0 0.000 196.96654
7504 Au 0 LAT Au 0 0.000 196.96654
7505 Au 0 LAT Au 0 0.000 196.96654
7506 Au 0 LAT Au 0 0.000 196.96654
7507 Au 0 LAT Au 0 0.000 196.96654
7508 Au 0 LAT Au 0 0.000 196.96654
7509 Au 0 LAT Au 0 0.000 196.96654
7510 Au 0 LAT Au 0 0.000 196.96654
7511 Au 0 LAT Au 0 0.000 196.96654
7512 Au 0 LAT Au 0 0.000 196.96654
7513 Au 0 LAT Au 0 0.000 196.96654
7514 Au 0 LAT Au 0 0.000 196.96654
7515 Au 0 LAT Au 0 0.000 196.96654
7516 Au 0 LAT Au 0 0.000 196.96654
7517 Au 0 LAT Au 0 0.000 196.96654
7518 Au 0 LAT Au 0 0.000 196.96654
7519 Au 0 LAT Au 0 0.000 196.96654
7520 Au 0 LAT Au 0 0.000 196.96654
7521 Au 0 LAT Au 0 0.000 196.96654
7522 Au 0 LAT Au 0 0.000 196.96654
7523 Au 0 LAT Au 0 0.000 196.96654
7524 Au 0 LAT Au 0 0.000 196.96654
7525 Au 0 LAT Au 0 0.000 196.96654
7526 Au 0 LAT Au 0 0.000 196.96654
7527 Au 0 LAT Au 0 0.000 196.96654
7528 Au 0 LAT Au 0 0.000 196.96654
7529 Au 0 LAT Au 0 0.000 196.96654
7530 Au 0 LAT Au 0 0.000 196.96654
7531 Au 0 LAT Au 0 0.000 196.96654
7532 Au 0 LAT Au 0 0.000 196.96654
7533 Au 0 LAT Au 0 0.000 196.96654
7534 Au 0 LAT Au 0 0.000 196.96654
7535 Au 0 LAT Au 0 0.000 196.96654
7536 Au 0 LAT Au 0 0.000 196.96654
7537 Au 0 LAT Au 0 0.000 196.96654
7538 Au 0 LAT Au 0 0.000 196.96654
7539 Au 0 LAT Au 0 0.000 196.96654
7540 Au 0 LAT Au 0 0.000 196.96654
7541 Au 0 LAT Au 0 0.000 196.96654
7542 Au 0 LAT Au 0 0.000 196.96654
7543 Au 0 LAT Au 0 0.000 196.96654
7544 Au 0 LAT Au 0 0.000 196.96654
7545 Au 0 LAT Au 0 0.000 196.96654
7546 Au 0 LAT Au 0 0.000 196.96654
7547 Au 0 LAT Au 0 0.000 196.96654
7548 Au 0 LAT Au 0 0.000 196.96654
7549 Au 0 LAT Au 0 0.000 196.96654
7550 Au 0 LAT Au 0 0.000 196.96654
7551 Au 0 LAT Au 0 0.000 196.96654
7552 Au 0 LAT Au 0 0.000 196.96654
7553 Au 0 LAT Au 0 0.000 196.96654
7554 Au 0 LAT Au 0 0.000 196.96654
7555 Au 0 LAT Au 0 0.000 196.96654
7556 Au 0 LAT Au 0 0.000 196.96654
7557 Au 0 LAT Au 0 0.000 196.96654
7558 Au 0 LAT Au 0 0.000 196.96654
7559 Au 0 LAT Au 0 0.000 196.96654
7560 Au 0 LAT Au 0 0.000 196.96654
7561 Au 0 LAT Au 0 0.000 196.96654
7562 Au 0 LAT Au 0 0.000 196.96654
7563 Au 0 LAT Au 0 0.000 196.96654
7564 Au 0 LAT Au 0 0.000 196.96654
7565 Au 0 LAT Au 0 0.000 196.96654
7566 Au 0 LAT Au 0 0.000 196.96654
7567 Au 0 LAT Au 0 0.000 196.96654
7568 Au 0 LAT Au 0 0.000 196.96654
7569 Au 0 LAT Au 0 0.000 196.96654
7570 Au 0 LAT Au 0 0.000 196.96654
7571 Au 0 LAT Au 0 0.000 196.96654
7572 Au 0 LAT Au 0 0.000 196.96654
7573 Au 0 LAT Au 0 0.000 196.96654
7574 Au 0 LAT Au 0 0.000 196.96654
7575 Au 0 LAT Au 0 0.000 196.96654
7576 Au 0 LAT Au 0 0.000 196.96654
7577 Au 0 LAT Au 0 0.000 196.96654
7578 Au 0 LAT Au 0 0.000 196.96654
7579 Au 0 LAT Au 0 0.000 196.96654
7580 Au 0 LAT Au 0 0.000 196.96654
7581 Au 0 LAT Au 0 0.000 196.96654
7582 Au 0 LAT Au 0 0.000 196.96654
7583 Au 0 LAT Au 0 0.000 196.96654
7584 Au 0 LAT Au 0 0.000 196.96654
7585 Au 0 LAT Au 0 0.000 196.96654
7586 Au 0 LAT Au 0 0.000 196.96654
7587 Au 0 LAT Au 0 0.000 196.96654
7588 Au 0 LAT Au 0 0.000 196.96654
7589 Au 0 LAT Au 0 0.000 196.96654
7590 Au 0 LAT Au 0 0.000 196.96654
7591 Au 0 LAT Au 0 0.000 196.96654
7592 Au 0 LAT Au 0 0.000 196.96654
7593 Au 0 LAT Au 0 0.000 196.96654
7594 Au 0 LAT Au 0 0.000 196.96654
7595 Au 0 LAT Au 0 0.000 196.96654
7596 Au 0 LAT Au 0 0.000 196.96654
7597 Au 0 LAT Au 0 0.000 196.96654
7598 Au 0 LAT Au 0 0.000 196.96654
7599 Au 0 LAT Au 0 0.000 196.96654
7600 Au 0 LAT Au 0 0.000 196.96654
7601 Au 0 LAT Au 0 0.000 196.96654
7602 Au 0 LAT Au 0 0.000 196.96654
7603 Au 0 LAT Au 0 0.000 196.96654
7604 Au 0 LAT Au 0 0.000 196.96654
7605 Au 0 LAT Au 0 0.000 196.96654
7606 Au 0 LAT Au 0 0.000 196.96654
7607 Au 0 LAT Au 0 0.000 196.96654
7608 Au 0 LAT Au 0 0.000 196.96654
7609 Au 0 LAT Au 0 0.000 196.96654
7610 Au 0 LAT Au 0 0.000 196.96654
7611 Au 0 LAT Au 0 0.000 196.96654
7612 Au 0 LAT Au 0 0.000 196.96654
7613 Au 0 LAT Au 0 0.000 196.96654
7614 Au 0 LAT Au 0 0.000 196.96654
7615 Au 0 LAT Au 0 0.000 196.96654
7616 Au 0 LAT Au 0 0.000 196.96654
7617 Au 0 LAT Au 0 0.000 196.96654
7618 Au 0 LAT Au 0 0.000 196.96654
7619 Au 0 LAT Au 0 0.000 196.96654
7620 Au 0 LAT Au 0 0.000 196.96654
7621 Au 0 LAT Au 0 0.000 196.96654
7622 Au 0 LAT Au 0 0.000 196.96654
7623 Au 0 LAT Au 0 0.000 196.96654
7624 Au 0 LAT Au 0 0.000 196.96654
7625 Au 0 LAT Au 0 0.000 196.96654
7626 Au 0 LAT Au 0 0.000 196.96654
7627 Au 0 LAT Au 0 0.000 196.96654
7628 Au 0 LAT Au 0 0.000 196.96654
7629 Au 0 LAT Au 0 0.000 196.96654
7630 Au 0 LAT Au 0 0.000 196.96654
7631 Au 0 LAT Au 0 0.000 196.96654
7632 Au 0 LAT Au 0 0.000 196.96654
7633 Au 0 LAT Au 0 0.000 196.96654
7634 Au 0 LAT Au 0 0.000 196.96654
7635 Au 0 LAT Au 0 0.000 196.96654
7636 Au 0 LAT Au 0 0.000 196.96654
7637 Au 0 LAT Au 0 0.000 196.96654
7638 Au 0 LAT Au 0 0.000 196.96654
7639 Au 0 LAT Au 0 0.000 196.96654
7640 Au 0 LAT Au 0 0.000 196.96654
7641 Au 0 LAT Au 0 0.000 196.96654
7642 Au 0 LAT Au 0 0.000 196.96654
7643 Au 0 LAT Au 0 0.000 196.96654
7644 Au 0 LAT Au 0 0.000 196.96654
7645 Au 0 LAT Au 0 0.000 196.96654
7646 Au 0 LAT Au 0 0.000 196.96654
7647 Au 0 LAT Au 0 0.000 196.96654
7648 Au 0 LAT Au 0 0.000 196.96654
7649 Au 0 LAT Au 0 0.000 196.96654
7650 Au 0 LAT Au 0 0.000 196.96654
7651 Au 0 LAT Au 0 0.000 196.96654
7652 Au 0 LAT Au 0 0.000 196.96654
7653 Au 0 LAT Au 0 0.000 196.96654
7654 Au 0 LAT Au 0 0.000 196.96654
7655 Au 0 LAT Au 0 0.000 196.96654
7656 Au 0 LAT Au 0 0.000 196.96654
7657 Au 0 LAT Au 0 0.000 196.96654
7658 Au 0 LAT Au 0 0.000 196.96654
7659 Au 0 LAT Au 0 0.000 196.96654
7660 Au 0 LAT Au 0 0.000 196.96654
7661 Au 0 LAT Au 0 0.000 196.96654
7662 Au 0 LAT Au 0 0.000 196.96654
7663 Au 0 LAT Au 0 0.000 196.96654
7664 Au 0 LAT Au 0 0.000 196.96654
7665 Au 0 LAT Au 0 0.000 196.96654
7666 Au 0 LAT Au 0 0.000 196.96654
7667 Au 0 LAT Au 0 0.000 196.96654
7668 Au 0 LAT Au 0 0.000 196.96654
7669 Au 0 LAT Au 0 0.000 196.96654
7670 Au 0 LAT Au 0 0.000 196.96654
7671 Au 0 LAT Au 0 0.000 196.96654
7672 Au 0 LAT Au 0 0.000 196.96654
7673 Au 0 LAT Au 0 0.000 196.96654
7674 Au 0 LAT Au 0 0.000 196.96654
7675 Au 0 LAT Au 0 0.000 196.96654
7676 Au 0 LAT Au 0 0.000 196.96654
7677 Au 0 LAT Au 0 0.000 196.96654
7678 Au 0 LAT Au 0 0.000 196.96654
7679 Au 0 LAT Au 0 0.000 196.96654
7680 Au 0 LAT Au 0 0.000 196.96654
7681 Au 0 LAT Au 0 0.000 196.96654
7682 Au 0 LAT Au 0 0.000 196.96654
7683 Au 0 LAT Au 0 0.000 196.96654
7684 Au 0 LAT Au 0 0.000 196.96654
7685 Au 0 LAT Au 0 0.000 196.96654
7686 Au 0 LAT Au 0 0.000 196.96654
7687 Au 0 LAT Au 0 0.000 196.96654
7688 Au 0 LAT Au 0 0.000 196.96654
7689 Au 0 LAT Au 0 0.000 196.96654
7690 Au 0 LAT Au 0 0.000 196.96654
7691 Au 0 LAT Au 0 0.000 196.96654
7692 Au 0 LAT Au 0 0.000 196.96654
7693 Au 0 LAT Au 0 0.000 196.96654
7694 Au 0 LAT Au 0 0.000 196.96654
7695 Au 0 LAT Au 0 0.000 196.96654
7696 Au 0 LAT Au 0 0.000 196.96654
7697 Au 0 LAT Au 0 0.000 196.96654
7698 Au 0 LAT Au 0 0.000 196.96654
7699 Au 0 LAT Au 0 0.000 196.96654
7700 Au 0 LAT Au 0 0.000 196.96654
7701 Au 0 LAT Au 0 0.000 196.96654
7702 Au 0 LAT Au 0 0.000 196.96654
7703 Au 0 LAT Au 0 0.000 196.96654
7704 Au 0 LAT Au 0 0.000 196.96654
7705 Au 0 LAT Au 0 0.000 196.96654
7706 Au 0 LAT Au 0 0.000 196.96654
7707 Au 0 LAT Au 0 0.000 196.96654
7708 Au 0 LAT Au 0 0.000 196.96654
7709 Au 0 LAT Au 0 0.000 196.96654
7710 Au 0 LAT Au 0 0.000 196.96654
7711 Au 0 LAT Au 0 0.000 196.96654
7712 Au 0 LAT Au 0 0.000 196.96654
7713 Au 0 LAT Au 0 0.000 196.96654
7714 Au 0 LAT Au 0 0.000 196.96654
7715 Au 0 LAT Au 0 0.000 196.96654
7716 Au 0 LAT Au 0 0.000 196.96654
7717 Au 0 LAT Au 0 0.000 196.96654
7718 Au 0 LAT Au 0 0.000 196.96654
7719 Au 0 LAT Au 0 0.000 196.96654
7720 Au 0 LAT Au 0 0.000 196.96654
7721 Au 0 LAT Au 0 0.000 196.96654
7722 Au 0 LAT Au 0 0.000 196.96654
7723 Au 0 LAT Au 0 0.000 196.96654
7724 Au 0 LAT Au 0 0.000 196.96654
7725 Au 0 LAT Au 0 0.000 196.96654
7726 Au 0 LAT Au 0 0.000 196.96654
7727 Au 0 LAT Au 0 0.000 196.96654
7728 Au 0 LAT Au 0 0.000 196.96654
7729 Au 0 LAT Au 0 0.000 196.96654
7730 Au 0 LAT Au 0 0.000 196.96654
7731 Au 0 LAT Au 0 0.000 196.96654
7732 Au 0 LAT Au 0 0.000 196.96654
7733 Au 0 LAT Au 0 0.000 196.96654
7734 Au 0 LAT Au 0 0.000 196.96654
7735 Au 0 LAT Au 0 0.000 196.96654
7736 Au 0 LAT Au 0 0.000 196.96654
7737 Au 0 LAT Au 0 0.000 196.96654
7738 Au 0 LAT Au 0 0.000 196.96654
7739 Au 0 LAT Au 0 0.000 196.96654
7740 Au 0 LAT Au 0 0.000 196.96654
7741 Au 0 LAT Au 0 0.000 196.96654
7742 Au 0 LAT Au 0 0.000 196.96654
7743 Au 0 LAT Au 0 0.000 196.96654
7744 Au 0 LAT Au 0 0.000 196.96654
7745 Au 0 LAT Au 0 0.000 196.96654
7746 Au 0 LAT Au 0 0.000 196.96654
7747 Au 0 LAT Au 0 0.000 196.96654
7748 Au 0 LAT Au 0 0.000 196.96654
7749 Au 0 LAT Au 0 0.000 196.96654
7750 Au 0 LAT Au 0 0.000 196.96654
7751 Au 0 LAT Au 0 0.000 196.96654
7752 Au 0 LAT Au 0 0.000 196.96654
7753 Au 0 LAT Au 0 0.000 196.96654
7754 Au 0 LAT Au 0 0.000 196.96654
7755 Au 0 LAT Au 0 0.000 196.96654
7756 Au 0 LAT Au 0 0.000 196.96654
7757 Au 0 LAT Au 0 0.000 196.96654
7758 Au 0 LAT Au 0 0.000 196.96654
7759 Au 0 LAT Au 0 0.000 196.96654
7760 Au 0 LAT Au 0 0.000 196.96654
7761 Au 0 LAT Au 0 0.000 196.96654
7762 Au 0 LAT Au 0 0.000 196.96654
7763 Au 0 LAT Au 0 0.000 196.96654
7764 Au 0 LAT Au 0 0.000 196.96654
7765 Au 0 LAT Au 0 0.000 196.96654
7766 Au 0 LAT Au 0 0.000 196.96654
7767 Au 0 LAT Au 0 0.000 196.96654
7768 Au 0 LAT Au 0 0.000 196.96654
7769 Au 0 LAT Au 0 0.000 196.96654
7770 Au 0 LAT Au 0 0.000 196.96654
7771 Au 0 LAT Au 0 0.000 196.96654
7772 Au 0 LAT Au 0 0.000 196.96654
7773 Au 0 LAT Au 0 0.000 196.96654
7774 Au 0 LAT Au 0 0.000 196.96654
7775 Au 0 LAT Au 0 0.000 196.96654
7776 Au 0 LAT Au 0 0.000 196.96654
7777 Au 0 LAT Au 0 0.000 196.96654
7778 Au 0 LAT Au 0 0.000 196.96654
7779 Au 0 LAT Au 0 0.000 196.96654
7780 Au 0 LAT Au 0 0.000 196.96654
7781 Au 0 LAT Au 0 0.000 196.96654
7782 Au 0 LAT Au 0 0.000 196.96654
7783 Au 0 LAT Au 0 0.000 196.96654
7784 Au 0 LAT Au 0 0.000 196.96654
7785 Au 0 LAT Au 0 0.000 196.96654
7786 Au 0 LAT Au 0 0.000 196.96654
7787 Au 0 LAT Au 0 0.000 196.96654
7788 Au 0 LAT Au 0 0.000 196.96654
7789 Au 0 LAT Au 0 0.000 196.96654
7790 Au 0 LAT Au 0 0.000 196.96654
7791 Au 0 LAT Au 0 0.000 196.96654
7792 Au 0 LAT Au 0 0.000 196.96654
7793 Au 0 LAT Au 0 0.000 196.96654
7794 Au 0 LAT Au 0 0.000 196.96654
7795 Au 0 LAT Au 0 0.000 196.96654
7796 Au 0 LAT Au 0 0.000 196.96654
7797 Au 0 LAT Au 0 0.000 196.96654
7798 Au 0 LAT Au 0 0.000 196.96654
7799 Au 0 LAT Au 0 0.000 196.96654
7800 Au 0 LAT Au 0 0.000 196.96654
7801 Au 0 LAT Au 0 0.000 196.96654
7802 Au 0 LAT Au 0 0.000 196.96654
7803 Au 0 LAT Au 0 0.000 196.96654
7804 Au 0 LAT Au 0 0.000 196.96654
7805 Au 0 LAT Au 0 0.000 196.96654
7806 Au 0 LAT Au 0 0.000 196.96654
7807 Au 0 LAT Au 0 0.000 196.96654
7808 Au 0 LAT Au 0 0.000 196.96654
7809 Au 0 LAT Au 0 0.000 196.96654
7810 Au 0 LAT Au 0 0.000 196.96654
7811 Au 0 LAT Au 0 0.000 196.96654
7812 Au 0 LAT Au 0 0.000 196.96654
7813 Au 0 LAT Au 0 0.000 196.96654
7814 Au 0 LAT Au 0 0.000 196.96654
7815 Au 0 LAT Au 0 0.000 196.96654
7816 Au 0 LAT Au 0 0.000 196.96654
7817 Au 0 LAT Au 0 0.000 196.96654
7818 Au 0 LAT Au 0 0.000 196.96654
7819 Au 0 LAT Au 0 0.000 196.96654
7820 Au 0 LAT Au 0 0.000 196.96654
7821 Au 0 LAT Au 0 0.000 196.96654
7822 Au 0 LAT Au 0 0.000 196.96654
7823 Au 0 LAT Au 0 0.000 196.96654
7824 Au 0 LAT Au 0 0.000 196.96654
7825 Au 0 LAT Au 0 0.000 196.96654
7826 Au 0 LAT Au 0 0.000 196.96654
7827 Au 0 LAT Au 0 0.000 196.96654
7828 Au 0 LAT Au 0 0.000 196.96654
7829 Au 0 LAT Au 0 0.000 196.96654
7830 Au 0 LAT Au 0 0.000 196.96654
7831 Au 0 LAT Au 0 0.000 196.96654
7832 Au 0 LAT Au 0 0.000 196.96654
7833 Au 0 LAT Au 0 0.000 196.96654
7834 Au 0 LAT Au 0 0.000 196.96654
7835 Au 0 LAT Au 0 0.000 196.96654
7836 Au 0 LAT Au 0 0.000 196.96654
7837 Au 0 LAT Au 0 0.000 196.96654
7838 Au 0 LAT Au 0 0.000 196.96654
7839 Au 0 LAT Au 0 0.000 196.96654
7840 Au 0 LAT Au 0 0.000 196.96654
7841 Au 0 LAT Au 0 0.000 196.96654
7842 Au 0 LAT Au 0 0.000 196.96654
7843 Au 0 LAT Au 0 0.000 196.96654
7844 Au 0 LAT Au 0 0.000 196.96654
7845 Au 0 LAT Au 0 0.000 196.96654
7846 Au 0 LAT Au 0 0.000 196.96654
7847 Au 0 LAT Au 0 0.000 196.96654
7848 Au 0 LAT Au 0 0.000 196.96654
7849 Au 0 LAT Au 0 0.000 196.96654
7850 Au 0 LAT Au 0 0.000 196.96654
7851 Au 0 LAT Au 0 0.000 196.96654
7852 Au 0 LAT Au 0 0.000 196.96654
7853 Au 0 LAT Au 0 0.000 196.96654
7854 Au 0 LAT Au 0 0.000 196.96654
7855 Au 0 LAT Au 0 0.000 196.96654
7856 Au 0 LAT Au 0 0.000 196.96654
7857 Au 0 LAT Au 0 0.000 196.96654
7858 Au 0 LAT Au 0 0.000 196.96654
7859 Au 0 LAT Au 0 0.000 196.96654
7860 Au 0 LAT Au 0 0.000 196.96654
7861 Au 0 LAT Au 0 0.000 196.96654
7862 Au 0 LAT Au 0 0.000 196.96654
7863 Au 0 LAT Au 0 0.000 196.96654
7864 Au 0 LAT Au 0 0.000 196.96654
7865 Au 0 LAT Au 0 0.000 196.96654
7866 Au 0 LAT Au 0 0.000 196.96654
7867 Au 0 LAT Au 0 0.000 196.96654
7868 Au 0 LAT Au 0 0.000 196.96654
7869 Au 0 LAT Au 0 0.000 196.96654
7870 Au 0 LAT Au 0 0.000 196.96654
7871 Au 0 LAT Au 0 0.000 196.96654
7872 Au 0 LAT Au 0 0.000 196.96654
7873 Au 0 LAT Au 0 0.000 196.96654
7874 Au 0 LAT Au 0 0.000 196.96654
7875 Au 0 LAT Au 0 0.000 196.96654
7876 Au 0 LAT Au 0 0.000 196.96654
7877 Au 0 LAT Au 0 0.000 196.96654
7878 Au 0 LAT Au 0 0.000 196.96654
7879 Au 0 LAT Au 0 0.000 196.96654
7880 Au 0 LAT Au 0 0.000 196.96654
7881 Au 0 LAT Au 0 0.000 196.96654
7882 Au 0 LAT Au 0 0.000 196.96654
7883 Au 0 LAT Au 0 0.000 196.96654
7884 Au 0 LAT Au 0 0.000 196.96654
7885 Au 0 LAT Au 0 0.000 196.96654
7886 Au 0 LAT Au 0 0.000 196.96654
7887 Au 0 LAT Au 0 0.000 196.96654
7888 Au 0 LAT Au 0 0.000 196.96654
7889 Au 0 LAT Au 0 0.000 196.96654
7890 Au 0 LAT Au 0 0.000 196.96654
7891 Au 0 LAT Au 0 0.000 196.96654
7892 Au 0 LAT Au 0 0.000 196.96654
7893 Au 0 LAT Au 0 0.000 196.96654
7894 Au 0 LAT Au 0 0.000 196.96654
7895 Au 0 LAT Au 0 0.000 196.96654
7896 Au 0 LAT Au 0 0.000 196.96654
7897 Au 0 LAT Au 0 0.000 196.96654
7898 Au 0 LAT Au 0 0.000 196.96654
7899 Au 0 LAT Au 0 0.000 196.96654
7900 Au 0 LAT Au 0 0.000 196.96654
7901 Au 0 LAT Au 0 0.000 196.96654
7902 Au 0 LAT Au 0 0.000 196.96654
7903 Au 0 LAT Au 0 0.000 196.96654
7904 Au 0 LAT Au 0 0.000 196.96654
7905 Au 0 LAT Au 0 0.000 196.96654
7906 Au 0 LAT Au 0 0.000 196.96654
7907 Au 0 LAT Au 0 0.000 196.96654
7908 Au 0 LAT Au 0 0.000 196.96654
7909 Au 0 LAT Au 0 0.000 196.96654
7910 Au 0 LAT Au 0 0.000 196.96654
7911 Au 0 LAT Au 0 0.000 196.96654
7912 Au 0 LAT Au 0 0.000 196.96654
7913 Au 0 LAT Au 0 0.000 196.96654
7914 Au 0 LAT Au 0 0.000 196.96654
7915 Au 0 LAT Au 0 0.000 196.96654
7916 Au 0 LAT Au 0 0.000 196.96654
7917 Au 0 LAT Au 0 0.000 196.96654
7918 Au 0 LAT Au 0 0.000 196.96654
7919 Au 0 LAT Au 0 0.000 196.96654
7920 Au 0 LAT Au 0 0.000 196.96654
7921 Au 0 LAT Au 0 0.000 196.96654
7922 Au 0 LAT Au 0 0.000 196.96654
7923 Au 0 LAT Au 0 0.000 196.96654
7924 Au 0 LAT Au 0 0.000 196.96654
7925 Au 0 LAT Au 0 0.000 196.96654
7926 Au 0 LAT Au 0 0.000 196.96654
7927 Au 0 LAT Au 0 0.000 196.96654
7928 Au 0 LAT Au 0 0.000 196.96654
7929 Au 0 LAT Au 0 0.000 196.96654
7930 Au 0 LAT Au 0 0.000 196.96654
7931 Au 0 LAT Au 0 0.000 196.96654
7932 Au 0 LAT Au 0 0.000 196.96654
7933 Au 0 LAT Au 0 0.000 196.96654
7934 Au 0 LAT Au 0 0.000 196.96654
7935 Au 0 LAT Au 0 0.000 196.96654
7936 Au 0 LAT Au 0 0.000 196.96654
7937 Au 0 LAT Au 0 0.000 196.96654
7938 Au 0 LAT Au 0 0.000 196.96654
7939 Au 0 LAT Au 0 0.000 196.96654
7940 Au 0 LAT Au 0 0.000 196.96654
7941 Au 0 LAT Au 0 0.000 196.96654
7942 Au 0 LAT Au 0 0.000 196.96654
7943 Au 0 LAT Au 0 0.000 196.96654
7944 Au 0 LAT Au 0 0.000 196.96654
7945 Au 0 LAT Au 0 0.000 196.96654
7946 Au 0 LAT Au 0 0.000 196.96654
7947 Au 0 LAT Au 0 0.000 196.96654
7948 Au 0 LAT Au 0 0.000 196.96654
7949 Au 0 LAT Au 0 0.000 196.96654
7950 Au 0 LAT Au 0 0.000 196.96654
7951 Au 0 LAT Au 0 0.000 196.96654
7952 Au 0 LAT Au 0 0.000 196.96654
7953 Au 0 LAT Au 0 0.000 196.96654
7954 Au 0 LAT Au 0 0.000 196.96654
7955 Au 0 LAT Au 0 0.000 196.96654
7956 Au 0 LAT Au 0 0.000 196.96654
7957 Au 0 LAT Au 0 0.000 196.96654
7958 Au 0 LAT Au 0 0.000 196.96654
7959 Au 0 LAT Au 0 0.000 196.96654
7960 Au 0 LAT Au 0 0.000 196.96654
7961 Au 0 LAT Au 0 0.000 196.96654
7962 Au 0 LAT Au 0 0.000 196.96654
7963 Au 0 LAT Au 0 0.000 196.96654
7964 Au 0 LAT Au 0 0.000 196.96654
7965 Au 0 LAT Au 0 0.000 196.96654
7966 Au 0 LAT Au 0 0.000 196.96654
7967 Au 0 LAT Au 0 0.000 196.96654
7968 Au 0 LAT Au 0 0.000 196.96654
7969 Au 0 LAT Au 0 0.000 196.96654
7970 Au 0 LAT Au 0 0.000 196.96654
7971 Au 0 LAT Au 0 0.000 196.96654
7972 Au 0 LAT Au 0 0.000 196.96654
7973 Au 0 LAT Au 0 0.000 196.96654
7974 Au 0 LAT Au 0 0.000 196.96654
7975 Au 0 LAT Au 0 0.000 196.96654
7976 Au 0 LAT Au 0 0.000 196.96654
7977 Au 0 LAT Au 0 0.000 196.96654
7978 Au 0 LAT Au 0 0.000 196.96654
7979 Au 0 LAT Au 0 0.000 196.96654
7980 Au 0 LAT Au 0 0.000 196.96654
7981 Au 0 LAT Au 0 0.000 196.96654
7982 Au 0 LAT Au 0 0.000 196.96654
7983 Au 0 LAT Au 0 0.000 196.96654
7984 Au 0 LAT Au 0 0.000 196.96654
7985 Au 0 LAT Au 0 0.000 196.96654
7986 Au 0 LAT Au 0 0.000 196.96654
7987 Au 0 LAT Au 0 0.000 196.96654
7988 Au 0 LAT Au 0 0.000 196.96654
7989 Au 0 LAT Au 0 0.000 196.96654
7990 Au 0 LAT Au 0 0.000 196.96654
7991 Au 0 LAT Au 0 0.000 196.96654
7992 Au 0 LAT Au 0 0.000 196.96654
7993 Au 0 LAT Au 0 0.000 196.96654
7994 Au 0 LAT Au 0 0.000 196.96654
7995 Au 0 LAT Au 0 0.000 196.96654
7996 Au 0 LAT Au 0 0.000 196.96654
7997 Au 0 LAT Au 0 0.000 196.96654
7998 Au 0 LAT Au 0 0.000 196.96654
7999 Au 0 LAT Au 0 0.000 196.96654
8000 Au 0 LAT Au 0 0.000 196.96654
8001 Au 0 LAT Au 0 0.000 196.96654
8002 Au 0 LAT Au 0 0.000 196.96654
8003 Au 0 LAT Au 0 0.000 196.96654
8004 Au 0 LAT Au 0 0.000 196.96654
8005 Au 0 LAT Au 0 0.000 196.96654
8006 Au 0 LAT Au 0 0.000 196.96654
8007 Au 0 LAT Au 0 0.000 196.96654
8008 Au 0 LAT Au 0 0.000 196.96654
8009 Au 0 LAT Au 0 0.000 196.96654
8010 Au 0 LAT Au 0 0.000 196.96654
8011 Au 0 LAT Au 0 0.000 196.96654
8012 Au 0 LAT Au 0 0.000 196.96654
8013 Au 0 LAT Au 0 0.000 196.96654
8014 Au 0 LAT Au 0 0.000 196.96654
8015 Au 0 LAT Au 0 0.000 196.96654
8016 Au 0 LAT Au 0 0.000 196.96654
8017 Au 0 LAT Au 0 0.000 196.96654
8018 Au 0 LAT Au 0 0.000 196.96654
8019 Au 0 LAT Au 0 0.000 196.96654
8020 Au 0 LAT Au 0 0.000 196.96654
8021 Au 0 LAT Au 0 0.000 196.96654
8022 Au 0 LAT Au 0 0.000 196.96654
8023 Au 0 LAT Au 0 0.000 196.96654
8024 Au 0 LAT Au 0 0.000 196.96654
8025 Au 0 LAT Au 0 0.000 196.96654
8026 Au 0 LAT Au 0 0.000 196.96654
8027 Au 0 LAT Au 0 0.000 196.96654
8028 Au 0 LAT Au 0 0.000 196.96654
8029 Au 0 LAT Au 0 0.000 196.96654
8030 Au 0 LAT Au 0 0.000 196.96654
8031 Au 0 LAT Au 0 0.000 196.96654
8032 Au 0 LAT Au 0 0.000 196.96654
8033 Au 0 LAT Au 0 0.000 196.96654
8034 Au 0 LAT Au 0 0.000 196.96654
8035 Au 0 LAT Au 0 0.000 196.96654
8036 Au 0 LAT Au 0 0.000 196.96654
8037 Au 0 LAT Au 0 0.000 196.96654
8038 Au 0 LAT Au 0 0.000 196.96654
8039 Au 0 LAT Au 0 0.000 196.96654
8040 Au 0 LAT Au 0 0.000 196.96654
8041 Au 0 LAT Au 0 0.000 196.96654
8042 Au 0 LAT Au 0 0.000 196.96654
8043 Au 0 LAT Au 0 0.000 196.96654
8044 Au 0 LAT Au 0 0.000 196.96654
8045 Au 0 LAT Au 0 0.000 196.96654
8046 Au 0 LAT Au 0 0.000 196.96654
8047 Au 0 LAT Au 0 0.000 196.96654
8048 Au 0 LAT Au 0 0.000 196.96654
8049 Au 0 LAT Au 0 0.000 196.96654
8050 Au 0 LAT Au 0 0.000 196.96654
8051 Au 0 LAT Au 0 0.000 196.96654
8052 Au 0 LAT Au 0 0.000 196.96654
8053 Au 0 LAT Au 0 0.000 196.96654
8054 Au 0 LAT Au 0 0.000 196.96654
8055 Au 0 LAT Au 0 0.000 196.96654
8056 Au 0 LAT Au 0 0.000 196.96654
8057 Au 0 LAT Au 0 0.000 196.96654
8058 Au 0 LAT Au 0 0.000 196.96654
8059 Au 0 LAT Au 0 0.000 196.96654
8060 Au 0 LAT Au 0 0.000 196.96654
8061 Au 0 LAT Au 0 0.000 196.96654
8062 Au 0 LAT Au 0 0.000 196.96654
8063 Au 0 LAT Au 0 0.000 196.96654
8064 Au 0 LAT Au 0 0.000 196.96654
8065 Au 0 LAT Au 0 0.000 196.96654
8066 Au 0 LAT Au 0 0.000 196.96654
8067 Au 0 LAT Au 0 0.000 196.96654
8068 Au 0 LAT Au 0 0.000 196.96654
8069 Au 0 LAT Au 0 0.000 196.96654
8070 Au 0 LAT Au 0 0.000 196.96654
8071 Au 0 LAT Au 0 0.000 196.96654
8072 Au 0 LAT Au 0 0.000 196.96654
8073 Au 0 LAT Au 0 0.000 196.96654
8074 Au 0 LAT Au 0 0.000 196.96654
8075 Au 0 LAT Au 0 0.000 196.96654
8076 Au 0 LAT Au 0 0.000 196.96654
8077 Au 0 LAT Au 0 0.000 196.96654
8078 Au 0 LAT Au 0 0.000 196.96654
8079 Au 0 LAT Au 0 0.000 196.96654
8080 Au 0 LAT Au 0 0.000 196.96654
8081 Au 0 LAT Au 0 0.000 196.96654
8082 Au 0 LAT Au 0 0.000 196.96654
8083 Au 0 LAT Au 0 0.000 196.96654
8084 Au 0 LAT Au 0 0.000 196.96654
8085 Au 0 LAT Au 0 0.000 196.96654
8086 Au 0 LAT Au 0 0.000 196.96654
8087 Au 0 LAT Au 0 0.000 196.96654
8088 Au 0 LAT Au 0 0.000 196.96654
8089 Au 0 LAT Au 0 0.000 196.96654
8090 Au 0 LAT Au 0 0.000 196.96654
8091 Au 0 LAT Au 0 0.000 196.96654
8092 Au 0 LAT Au 0 0.000 196.96654
8093 Au 0 LAT Au 0 0.000 196.96654
8094 Au 0 LAT Au 0 0.000 196.96654
8095 Au 0 LAT Au 0 0.000 196.96654
8096 Au 0 LAT Au 0 0.000 196.96654
8097 Au 0 LAT Au 0 0.000 196.96654
8098 Au 0 LAT Au 0 0.000 196.96654
8099 Au 0 LAT Au 0 0.000 196.96654
8100 Au 0 LAT Au 0 0.000 196.96654
8101 Au 0 LAT Au 0 0.000 196.96654
8102 Au 0 LAT Au 0 0.000 196.96654
8103 Au 0 LAT Au 0 0.000 196.96654
8104 Au 0 LAT Au 0 0.000 196.96654
8105 Au 0 LAT Au 0 0.000 196.96654
8106 Au 0 LAT Au 0 0.000 196.96654
8107 Au 0 LAT Au 0 0.000 196.96654
8108 Au 0 LAT Au 0 0.000 196.96654
8109 Au 0 LAT Au 0 0.000 196.96654
8110 Au 0 LAT Au 0 0.000 196.96654
8111 Au 0 LAT Au 0 0.000 196.96654
8112 Au 0 LAT Au 0 0.000 196.96654
8113 Au 0 LAT Au 0 0.000 196.96654
8114 Au 0 LAT Au 0 0.000 196.96654
8115 Au 0 LAT Au 0 0.000 196.96654
8116 Au 0 LAT Au 0 0.000 196.96654
8117 Au 0 LAT Au 0 0.000 196.96654
8118 Au 0 LAT Au 0 0.000 196.96654
8119 Au 0 LAT Au 0 0.000 196.96654
8120 Au 0 LAT Au 0 0.000 196.96654
8121 Au 0 LAT Au 0 0.000 196.96654
8122 Au 0 LAT Au 0 0.000 196.96654
8123 Au 0 LAT Au 0 0.000 196.96654
8124 Au 0 LAT Au 0 0.000 196.96654
8125 Au 0 LAT Au 0 0.000 196.96654
8126 Au 0 LAT Au 0 0.000 196.96654
8127 Au 0 LAT Au 0 0.000 196.96654
8128 Au 0 LAT Au 0 0.000 196.96654
8129 Au 0 LAT Au 0 0.000 196.96654
8130 Au 0 LAT Au 0 0.000 196.96654
8131 Au 0 LAT Au 0 0.000 196.96654
8132 Au 0 LAT Au 0 0.000 196.96654
8133 Au 0 LAT Au 0 0.000 196.96654
8134 Au 0 LAT Au 0 0.000 196.96654
8135 Au 0 LAT Au 0 0.000 196.96654
8136 Au 0 LAT Au 0 0.000 196.96654
8137 Au 0 LAT Au 0 0.000 196.96654
8138 Au 0 LAT Au 0 0.000 196.96654
8139 Au 0 LAT Au 0 0.000 196.96654
8140 Au 0 LAT Au 0 0.000 196.96654
8141 Au 0 LAT Au 0 0.000 196.96654
8142 Au 0 LAT Au 0 0.000 196.96654
8143 Au 0 LAT Au 0 0.000 196.96654
8144 Au 0 LAT Au 0 0.000 196.96654
8145 Au 0 LAT Au 0 0.000 196.96654
8146 Au 0 LAT Au 0 0.000 196.96654
8147 Au 0 LAT Au 0 0.000 196.96654
8148 Au 0 LAT Au 0 0.000 196.96654
8149 Au 0 LAT Au 0 0.000 196.96654
8150 Au 0 LAT Au 0 0.000 196.96654
8151 Au 0 LAT Au 0 0.000 196.96654
8152 Au 0 LAT Au 0 0.000 196.96654
8153 Au 0 LAT Au 0 0.000 196.96654
8154 Au 0 LAT Au 0 0.000 196.96654
8155 Au 0 LAT Au 0 0.000 196.96654
8156 Au 0 LAT Au 0 0.000 196.96654
8157 Au 0 LAT Au 0 0.000 196.96654
8158 Au 0 LAT Au 0 0.000 196.96654
8159 Au 0 LAT Au 0 0.000 196.96654
8160 Au 0 LAT Au 0 0.000 196.96654
8161 Au 0 LAT Au 0 0.000 196.96654
8162 Au 0 LAT Au 0 0.000 196.96654
8163 Au 0 LAT Au 0 0.000 196.96654
8164 Au 0 LAT Au 0 0.000 196.96654
8165 Au 0 LAT Au 0 0.000 196.96654
8166 Au 0 LAT Au 0 0.000 196.96654
8167 Au 0 LAT Au 0 0.000 196.96654
8168 Au 0 LAT Au 0 0.000 196.96654
8169 Au 0 LAT Au 0 0.000 196.96654
8170 Au 0 LAT Au 0 0.000 196.96654
8171 Au 0 LAT Au 0 0.000 196.96654
8172 Au 0 LAT Au 0 0.000 196.96654
8173 Au 0 LAT Au 0 0.000 196.96654
8174 Au 0 LAT Au 0 0.000 196.96654
8175 Au 0 LAT Au 0 0.000 196.96654
8176 Au 0 LAT Au 0 0.000 196.96654
8177 Au 0 LAT Au 0 0.000 196.96654
8178 Au 0 LAT Au 0 0.000 196.96654
8179 Au 0 LAT Au 0 0.000 196.96654
8180 Au 0 LAT Au 0 0.000 196.96654
8181 Au 0 LAT Au 0 0.000 196.96654
8182 Au 0 LAT Au 0 0.000 196.96654
8183 Au 0 LAT Au 0 0.000 196.96654
8184 Au 0 LAT Au 0 0.000 196.96654
8185 Au 0 LAT Au 0 0.000 196.96654
8186 Au 0 LAT Au 0 0.000 196.96654
8187 Au 0 LAT Au 0 0.000 196.96654
8188 Au 0 LAT Au 0 0.000 196.96654
8189 Au 0 LAT Au 0 0.000 196.96654
8190 Au 0 LAT Au 0 0.000 196.96654
8191 Au 0 LAT Au 0 0.000 196.96654
8192 Au 0 LAT Au 0 0.000 196.96654
8193 Au 0 LAT Au 0 0.000 196.96654
8194 Au 0 LAT Au 0 0.000 196.96654
8195 Au 0 LAT Au 0 0.000 196.96654
8196 Au 0 LAT Au 0 0.000 196.96654
8197 Au 0 LAT Au 0 0.000 196.96654
8198 Au 0 LAT Au 0 0.000 196.96654
8199 Au 0 LAT Au 0 0.000 196.96654
8200 Au 0 LAT Au 0 0.000 196.96654
8201 Au 0 LAT Au 0 0.000 196.96654
8202 Au 0 LAT Au 0 0.000 196.96654
8203 Au 0 LAT Au 0 0.000 196.96654
8204 Au 0 LAT Au 0 0.000 196.96654
8205 Au 0 LAT Au 0 0.000 196.96654
8206 Au 0 LAT Au 0 0.000 196.96654
8207 Au 0 LAT Au 0 0.000 196.96654
8208 Au 0 LAT Au 0 0.000 196.96654
8209 Au 0 LAT Au 0 0.000 196.96654
8210 Au 0 LAT Au 0 0.000 196.96654
8211 Au 0 LAT Au 0 0.000 196.96654
8212 Au 0 LAT Au 0 0.000 196.96654
8213 Au 0 LAT Au 0 0.000 196.96654
8214 Au 0 LAT Au 0 0.000 196.96654
8215 Au 0 LAT Au 0 0.000 196.96654
8216 Au 0 LAT Au 0 0.000 196.96654
8217 Au 0 LAT Au 0 0.000 196.96654
8218 Au 0 LAT Au 0 0.000 196.96654
8219 Au 0 LAT Au 0 0.000 196.96654
8220 Au 0 LAT Au 0 0.000 196.96654
8221 Au 0 LAT Au 0 0.000 196.96654
8222 Au 0 LAT Au 0 0.000 196.96654
8223 Au 0 LAT Au 0 0.000 196.96654
8224 Au 0 LAT Au 0 0.000 196.96654
8225 Au 0 LAT Au 0 0.000 196.96654
8226 Au 0 LAT Au 0 0.000 196.96654
8227 Au 0 LAT Au 0 0.000 196.96654
8228 Au 0 LAT Au 0 0.000 196.96654
8229 Au 0 LAT Au 0 0.000 196.96654
8230 Au 0 LAT Au 0 0.000 196.96654
8231 Au 0 LAT Au 0 0.000 196.96654
8232 Au 0 LAT Au 0 0.000 196.96654
8233 Au 0 LAT Au 0 0.000 196.96654
8234 Au 0 LAT Au 0 0.000 196.96654
8235 Au 0 LAT Au 0 0.000 196.96654
8236 Au 0 LAT Au 0 0.000 196.96654
8237 Au 0 LAT Au 0 0.000 196.96654
8238 Au 0 LAT Au 0 0.000 196.96654
8239 Au 0 LAT Au 0 0.000 196.96654
8240 Au 0 LAT Au 0 0.000 196.96654
8241 Au 0 LAT Au 0 0.000 196.96654
8242 Au 0 LAT Au 0 0.000 196.96654
8243 Au 0 LAT Au 0 0.000 196.96654
8244 Au 0 LAT Au 0 0.000 196.96654
8245 Au 0 LAT Au 0 0.000 196.96654
8246 Au 0 LAT Au 0 0.000 196.96654
8247 Au 0 LAT Au 0 0.000 196.96654
8248 Au 0 LAT Au 0 0.000 196.96654
8249 Au 0 LAT Au 0 0.000 196.96654
8250 Au 0 LAT Au 0 0.000 196.96654
8251 Au 0 LAT Au 0 0.000 196.96654
8252 Au 0 LAT Au 0 0.000 196.96654
8253 Au 0 LAT Au 0 0.000 196.96654
8254 Au 0 LAT Au 0 0.000 196.96654
8255 Au 0 LAT Au 0 0.000 196.96654
8256 Au 0 LAT Au 0 0.000 196.96654
8257 Au 0 LAT Au 0 0.000 196.96654
8258 Au 0 LAT Au 0 0.000 196.96654
8259 Au 0 LAT Au 0 0.000 196.96654
8260 Au 0 LAT Au 0 0.000 196.96654
8261 Au 0 LAT Au 0 0.000 196.96654
8262 Au 0 LAT Au 0 0.000 196.96654
8263 Au 0 LAT Au 0 0.000 196.96654
8264 Au 0 LAT Au 0 0.000 196.96654
8265 Au 0 LAT Au 0 0.000 196.96654
8266 Au 0 LAT Au 0 0.000 196.96654
8267 Au 0 LAT Au 0 0.000 196.96654
8268 Au 0 LAT Au 0 0.000 196.96654
8269 Au 0 LAT Au 0 0.000 196.96654
8270 Au 0 LAT Au 0 0.000 196.96654
8271 Au 0 LAT Au 0 0.000 196.96654
8272 Au 0 LAT Au 0 0.000 196.96654
8273 Au 0 LAT Au 0 0.000 196.96654
8274 Au 0 LAT Au 0 0.000 196.96654
8275 Au 0 LAT Au 0 0.000 196.96654
8276 Au 0 LAT Au 0 0.000 196.96654
8277 Au 0 LAT Au 0 0.000 196.96654
8278 Au 0 LAT Au 0 0.000 196.96654
8279 Au 0 LAT Au 0 0.000 196.96654
8280 Au 0 LAT Au 0 0.000 196.96654
8281 Au 0 LAT Au 0 0.000 196.96654
8282 Au 0 LAT Au 0 0.000 196.96654
8283 Au 0 LAT Au 0 0.000 196.96654
8284 Au 0 LAT Au 0 0.000 196.96654
8285 Au 0 LAT Au 0 0.000 196.96654
8286 Au 0 LAT Au 0 0.000 196.96654
8287 Au 0 LAT Au 0 0.000 196.96654
8288 Au 0 LAT Au 0 0.000 196.96654
8289 Au 0 LAT Au 0 0.000 196.96654
8290 Au 0 LAT Au 0 0.000 196.96654
8291 Au 0 LAT Au 0 0.000 196.96654
8292 Au 0 LAT Au 0 0.000 196.96654
8293 Au 0 LAT Au 0 0.000 196.96654
8294 Au 0 LAT Au 0 0.000 196.96654
8295 Au 0 LAT Au 0 0.000 196.96654
8296 Au 0 LAT Au 0 0.000 196.96654
8297 Au 0 LAT Au 0 0.000 196.96654
8298 Au 0 LAT Au 0 0.000 196.96654
8299 Au 0 LAT Au 0 0.000 196.96654
8300 Au 0 LAT Au 0 0.000 196.96654
8301 Au 0 LAT Au 0 0.000 196.96654
8302 Au 0 LAT Au 0 0.000 196.96654
8303 Au 0 LAT Au 0 0.000 196.96654
8304 Au 0 LAT Au 0 0.000 196.96654
8305 Au 0 LAT Au 0 0.000 196.96654
8306 Au 0 LAT Au 0 0.000 196.96654
8307 Au 0 LAT Au 0 0.000 196.96654
8308 Au 0 LAT Au 0 0.000 196.96654
8309 Au 0 LAT Au 0 0.000 196.96654
8310 Au 0 LAT Au 0 0.000 196.96654
8311 Au 0 LAT Au 0 0.000 196.96654
8312 Au 0 LAT Au 0 0.000 196.96654
8313 Au 0 LAT Au 0 0.000 196.96654
8314 Au 0 LAT Au 0 0.000 196.96654
8315 Au 0 LAT Au 0 0.000 196.96654
8316 Au 0 LAT Au 0 0.000 196.96654
8317 Au 0 LAT Au 0 0.000 196.96654
8318 Au 0 LAT Au 0 0.000 196.96654
8319 Au 0 LAT Au 0 0.000 196.96654
8320 Au 0 LAT Au 0 0.000 196.96654
8321 Au 0 LAT Au 0 0.000 196.96654
8322 Au 0 LAT Au 0 0.000 196.96654
8323 Au 0 LAT Au 0 0.000 196.96654
8324 Au 0 LAT Au 0 0.000 196.96654
8325 Au 0 LAT Au 0 0.000 196.96654
8326 Au 0 LAT Au 0 0.000 196.96654
8327 Au 0 LAT Au 0 0.000 196.96654
8328 Au 0 LAT Au 0 0.000 196.96654
8329 Au 0 LAT Au 0 0.000 196.96654
8330 Au 0 LAT Au 0 0.000 196.96654
8331 Au 0 LAT Au 0 0.000 196.96654
8332 Au 0 LAT Au 0 0.000 196.96654
8333 Au 0 LAT Au 0 0.000 196.96654
8334 Au 0 LAT Au 0 0.000 196.96654
8335 Au 0 LAT Au 0 0.000 196.96654
8336 Au 0 LAT Au 0 0.000 196.96654
8337 Au 0 LAT Au 0 0.000 196.96654
8338 Au 0 LAT Au 0 0.000 196.96654
8339 Au 0 LAT Au 0 0.000 196.96654
8340 Au 0 LAT Au 0 0.000 196.96654
8341 Au 0 LAT Au 0 0.000 196.96654
8342 Au 0 LAT Au 0 0.000 196.96654
8343 Au 0 LAT Au 0 0.000 196.96654
8344 Au 0 LAT Au 0 0.000 196.96654
8345 Au 0 LAT Au 0 0.000 196.96654
8346 Au 0 LAT Au 0 0.000 196.96654
8347 Au 0 LAT Au 0 0.000 196.96654
8348 Au 0 LAT Au 0 0.000 196.96654
8349 Au 0 LAT Au 0 0.000 196.96654
8350 Au 0 LAT Au 0 0.000 196.96654
8351 Au 0 LAT Au 0 0.000 196.96654
8352 Au 0 LAT Au 0 0.000 196.96654
8353 Au 0 LAT Au 0 0.000 196.96654
8354 Au 0 LAT Au 0 0.000 196.96654
8355 Au 0 LAT Au 0 0.000 196.96654
8356 Au 0 LAT Au 0 0.000 196.96654
8357 Au 0 LAT Au 0 0.000 196.96654
8358 Au 0 LAT Au 0 0.000 196.96654
8359 Au 0 LAT Au 0 0.000 196.96654
8360 Au 0 LAT Au 0 0.000 196.96654
8361 Au 0 LAT Au 0 0.000 196.96654
8362 Au 0 LAT Au 0 0.000 196.96654
8363 Au 0 LAT Au 0 0.000 196.96654
8364 Au 0 LAT Au 0 0.000 196.96654
8365 Au 0 LAT Au 0 0.000 196.96654
8366 Au 0 LAT Au 0 0.000 196.96654
8367 Au 0 LAT Au 0 0.000 196.96654
8368 Au 0 LAT Au 0 0.000 196.96654
8369 Au 0 LAT Au 0 0.000 196.96654
8370 Au 0 LAT Au 0 0.000 196.96654
8371 Au 0 LAT Au 0 0.000 196.96654
8372 Au 0 LAT Au 0 0.000 196.96654
8373 Au 0 LAT Au 0 0.000 196.96654
8374 Au 0 LAT Au 0 0.000 196.96654
8375 Au 0 LAT Au 0 0.000 196.96654
8376 Au 0 LAT Au 0 0.000 196.96654
8377 Au 0 LAT Au 0 0.000 196.96654
8378 Au 0 LAT Au 0 0.000 196.96654
8379 Au 0 LAT Au 0 0.000 196.96654
8380 Au 0 LAT Au 0 0.000 196.96654
8381 Au 0 LAT Au 0 0.000 196.96654
8382 Au 0 LAT Au 0 0.000 196.96654
8383 Au 0 LAT Au 0 0.000 196.96654
8384 Au 0 LAT Au 0 0.000 196.96654
8385 Au 0 LAT Au 0 0.000 196.96654
8386 Au 0 LAT Au 0 0.000 196.96654
8387 Au 0 LAT Au 0 0.000 196.96654
8388 Au 0 LAT Au 0 0.000 196.96654
8389 Au 0 LAT Au 0 0.000 196.96654
8390 Au 0 LAT Au 0 0.000 196.96654
8391 Au 0 LAT Au 0 0.000 196.96654
8392 Au 0 LAT Au 0 0.000 196.96654
8393 Au 0 LAT Au 0 0.000 196.96654
8394 Au 0 LAT Au 0 0.000 196.96654
8395 Au 0 LAT Au 0 0.000 196.96654
8396 Au 0 LAT Au 0 0.000 196.96654
8397 Au 0 LAT Au 0 0.000 196.96654
8398 Au 0 LAT Au 0 0.000 196.96654
8399 Au 0 LAT Au 0 0.000 196.96654
8400 Au 0 LAT Au 0 0.000 196.96654
8401 Au 0 LAT Au 0 0.000 196.96654
8402 Au 0 LAT Au 0 0.000 196.96654
8403 Au 0 LAT Au 0 0.000 196.96654
8404 Au 0 LAT Au 0 0.000 196.96654
8405 Au 0 LAT Au 0 0.000 196.96654
8406 Au 0 LAT Au 0 0.000 196.96654
8407 Au 0 LAT Au 0 0.000 196.96654
8408 Au 0 LAT Au 0 0.000 196.96654
8409 Au 0 LAT Au 0 0.000 196.96654
8410 Au 0 LAT Au 0 0.000 196.96654
8411 Au 0 LAT Au 0 0.000 196.96654
8412 Au 0 LAT Au 0 0.000 196.96654
8413 Au 0 LAT Au 0 0.000 196.96654
8414 Au 0 LAT Au 0 0.000 196.96654
8415 Au 0 LAT Au 0 0.000 196.96654
8416 Au 0 LAT Au 0 0.000 196.96654
8417 Au 0 LAT Au 0 0.000 196.96654
8418 Au 0 LAT Au 0 0.000 196.96654
8419 Au 0 LAT Au 0 0.000 196.96654
8420 Au 0 LAT Au 0 0.000 196.96654
8421 Au 0 LAT Au 0 0.000 196.96654
8422 Au 0 LAT Au 0 0.000 196.96654
8423 Au 0 LAT Au 0 0.000 196.96654
8424 Au 0 LAT Au 0 0.000 196.96654
8425 Au 0 LAT Au 0 0.000 196.96654
8426 Au 0 LAT Au 0 0.000 196.96654
8427 Au 0 LAT Au 0 0.000 196.96654
8428 Au 0 LAT Au 0 0.000 196.96654
8429 Au 0 LAT Au 0 0.000 196.96654
8430 Au 0 LAT Au 0 0.000 196.96654
8431 Au 0 LAT Au 0 0.000 196.96654
8432 Au 0 LAT Au 0 0.000 196.96654
8433 Au 0 LAT Au 0 0.000 196.96654
8434 Au 0 LAT Au 0 0.000 196.96654
8435 Au 0 LAT Au 0 0.000 196.96654
8436 Au 0 LAT Au 0 0.000 196.96654
8437 Au 0 LAT Au 0 0.000 196.96654
8438 Au 0 LAT Au 0 0.000 196.96654
8439 Au 0 LAT Au 0 0.000 196.96654
8440 Au 0 LAT Au 0 0.000 196.96654
8441 Au 0 LAT Au 0 0.000 196.96654
8442 Au 0 LAT Au 0 0.000 196.96654
8443 Au 0 LAT Au 0 0.000 196.96654
8444 Au 0 LAT Au 0 0.000 196.96654
8445 Au 0 LAT Au 0 0.000 196.96654
8446 Au 0 LAT Au 0 0.000 196.96654
8447 Au 0 LAT Au 0 0.000 196.96654
8448 Au 0 LAT Au 0 0.000 196.96654
8449 Au 0 LAT Au 0 0.000 196.96654
8450 Au 0 LAT Au 0 0.000 196.96654
8451 Au 0 LAT Au 0 0.000 196.96654
8452 Au 0 LAT Au 0 0.000 196.96654
8453 Au 0 LAT Au 0 0.000 196.96654
8454 Au 0 LAT Au 0 0.000 196.96654
8455 Au 0 LAT Au 0 0.000 196.96654
8456 Au 0 LAT Au 0 0.000 196.96654
8457 Au 0 LAT Au 0 0.000 196.96654
8458 Au 0 LAT Au 0 0.000 196.96654
8459 Au 0 LAT Au 0 0.000 196.96654
8460 Au 0 LAT Au 0 0.000 196.96654
8461 Au 0 LAT Au 0 0.000 196.96654
8462 Au 0 LAT Au 0 0.000 196.96654
8463 Au 0 LAT Au 0 0.000 196.96654
8464 Au 0 LAT Au 0 0.000 196.96654
8465 Au 0 LAT Au 0 0.000 196.96654
8466 Au 0 LAT Au 0 0.000 196.96654
8467 Au 0 LAT Au 0 0.000 196.96654
8468 Au 0 LAT Au 0 0.000 196.96654
8469 Au 0 LAT Au 0 0.000 196.96654
8470 Au 0 LAT Au 0 0.000 196.96654
8471 Au 0 LAT Au 0 0.000 196.96654
8472 Au 0 LAT Au 0 0.000 196.96654
8473 Au 0 LAT Au 0 0.000 196.96654
8474 Au 0 LAT Au 0 0.000 196.96654
8475 Au 0 LAT Au 0 0.000 196.96654
8476 Au 0 LAT Au 0 0.000 196.96654
8477 Au 0 LAT Au 0 0.000 196.96654
8478 Au 0 LAT Au 0 0.000 196.96654
8479 Au 0 LAT Au 0 0.000 196.96654
8480 Au 0 LAT Au 0 0.000 196.96654
8481 Au 0 LAT Au 0 0.000 196.96654
8482 Au 0 LAT Au 0 0.000 196.96654
8483 Au 0 LAT Au 0 0.000 196.96654
8484 Au 0 LAT Au 0 0.000 196.96654
8485 Au 0 LAT Au 0 0.000 196.96654
8486 Au 0 LAT Au 0 0.000 196.96654
8487 Au 0 LAT Au 0 0.000 196.96654
8488 Au 0 LAT Au 0 0.000 196.96654
8489 Au 0 LAT Au 0 0.000 196.96654
8490 Au 0 LAT Au 0 0.000 196.96654
8491 Au 0 LAT Au 0 0.000 196.96654
8492 Au 0 LAT Au 0 0.000 196.96654
8493 Au 0 LAT Au 0 0.000 196.96654
8494 Au 0 LAT Au 0 0.000 196.96654
8495 Au 0 LAT Au 0 0.000 196.96654
8496 Au 0 LAT Au 0 0.000 196.96654
8497 Au 0 LAT Au 0 0.000 196.96654
8498 Au 0 LAT Au 0 0.000 196.96654
8499 Au 0 LAT Au 0 0.000 196.96654
8500 Au 0 LAT Au 0 0.000 196.96654
8501 Au 0 LAT Au 0 0.000 196.96654
8502 Au 0 LAT Au 0 0.000 196.96654
8503 Au 0 LAT Au 0 0.000 196.96654
8504 Au 0 LAT Au 0 0.000 196.96654
8505 Au 0 LAT Au 0 0.000 196.96654
8506 Au 0 LAT Au 0 0.000 196.96654
8507 Au 0 LAT Au 0 0.000 196.96654
8508 Au 0 LAT Au 0 0.000 196.96654
8509 Au 0 LAT Au 0 0.000 196.96654
8510 Au 0 LAT Au 0 0.000 196.96654
8511 Au 0 LAT Au 0 0.000 196.96654
8512 Au 0 LAT Au 0 0.000 196.96654
8513 Au 0 LAT Au 0 0.000 196.96654
8514 Au 0 LAT Au 0 0.000 196.96654
8515 Au 0 LAT Au 0 0.000 196.96654
8516 Au 0 LAT Au 0 0.000 196.96654
8517 Au 0 LAT Au 0 0.000 196.96654
8518 Au 0 LAT Au 0 0.000 196.96654
8519 Au 0 LAT Au 0 0.000 196.96654
8520 Au 0 LAT Au 0 0.000 196.96654
8521 Au 0 LAT Au 0 0.000 196.96654
8522 Au 0 LAT Au 0 0.000 196.96654
8523 Au 0 LAT Au 0 0.000 196.96654
8524 Au 0 LAT Au 0 0.000 196.96654
8525 Au 0 LAT Au 0 0.000 196.96654
8526 Au 0 LAT Au 0 0.000 196.96654
8527 Au 0 LAT Au 0 0.000 196.96654
8528 Au 0 LAT Au 0 0.000 196.96654
8529 Au 0 LAT Au 0 0.000 196.96654
8530 Au 0 LAT Au 0 0.000 196.96654
8531 Au 0 LAT Au 0 0.000 196.96654
8532 Au 0 LAT Au 0 0.000 196.96654
8533 Au 0 LAT Au 0 0.000 196.96654
8534 Au 0 LAT Au 0 0.000 196.96654
8535 Au 0 LAT Au 0 0.000 196.96654
8536 Au 0 LAT Au 0 0.000 196.96654
8537 Au 0 LAT Au 0 0.000 196.96654
8538 Au 0 LAT Au 0 0.000 196.96654
8539 Au 0 LAT Au 0 0.000 196.96654
8540 Au 0 LAT Au 0 0.000 196.96654
8541 Au 0 LAT Au 0 0.000 196.96654
8542 Au 0 LAT Au 0 0.000 196.96654
8543 Au 0 LAT Au 0 0.000 196.96654
8544 Au 0 LAT Au 0 0.000 196.96654
8545 Au 0 LAT Au 0 0.000 196.96654
8546 Au 0 LAT Au 0 0.000 196.96654
8547 Au 0 LAT Au 0 0.000 196.96654
8548 Au 0 LAT Au 0 0.000 196.96654
8549 Au 0 LAT Au 0 0.000 196.96654
8550 Au 0 LAT Au 0 0.000 196.96654
8551 Au 0 LAT Au 0 0.000 196.96654
8552 Au 0 LAT Au 0 0.000 196.96654
8553 Au 0 LAT Au 0 0.000 196.96654
8554 Au 0 LAT Au 0 0.000 196.96654
8555 Au 0 LAT Au 0 0.000 196.96654
8556 Au 0 LAT Au 0 0.000 196.96654
8557 Au 0 LAT Au 0 0.000 196.96654
8558 Au 0 LAT Au 0 0.000 196.96654
8559 Au 0 LAT Au 0 0.000 196.96654
8560 Au 0 LAT Au 0 0.000 196.96654
8561 Au 0 LAT Au 0 0.000 196.96654
8562 Au 0 LAT Au 0 0.000 196.96654
8563 Au 0 LAT Au 0 0.000 196.96654
8564 Au 0 LAT Au 0 0.000 196.96654
8565 Au 0 LAT Au 0 0.000 196.96654
8566 Au 0 LAT Au 0 0.000 196.96654
8567 Au 0 LAT Au 0 0.000 196.96654
8568 Au 0 LAT Au 0 0.000 196.96654
8569 Au 0 LAT Au 0 0.000 196.96654
8570 Au 0 LAT Au 0 0.000 196.96654
8571 Au 0 LAT Au 0 0.000 196.96654
8572 Au 0 LAT Au 0 0.000 196.96654
8573 Au 0 LAT Au 0 0.000 196.96654
8574 Au 0 LAT Au 0 0.000 196.96654
8575 Au 0 LAT Au 0 0.000 196.96654
8576 Au 0 LAT Au 0 0.000 196.96654
8577 Au 0 LAT Au 0 0.000 196.96654
8578 Au 0 LAT Au 0 0.000 196.96654
8579 Au 0 LAT Au 0 0.000 196.96654
8580 Au 0 LAT Au 0 0.000 196.96654
8581 Au 0 LAT Au 0 0.000 196.96654
8582 Au 0 LAT Au 0 0.000 196.96654
8583 Au 0 LAT Au 0 0.000 196.96654
8584 Au 0 LAT Au 0 0.000 196.96654
8585 Au 0 LAT Au 0 0.000 196.96654
8586 Au 0 LAT Au 0 0.000 196.96654
8587 Au 0 LAT Au 0 0.000 196.96654
8588 Au 0 LAT Au 0 0.000 196.96654
8589 Au 0 LAT Au 0 0.000 196.96654
8590 Au 0 LAT Au 0 0.000 196.96654
8591 Au 0 LAT Au 0 0.000 196.96654
8592 Au 0 LAT Au 0 0.000 196.96654
8593 Au 0 LAT Au 0 0.000 196.96654
8594 Au 0 LAT Au 0 0.000 196.96654
8595 Au 0 LAT Au 0 0.000 196.96654
8596 Au 0 LAT Au 0 0.000 196.96654
8597 Au 0 LAT Au 0 0.000 196.96654
8598 Au 0 LAT Au 0 0.000 196.96654
8599 Au 0 LAT Au 0 0.000 196.96654
8600 Au 0 LAT Au 0 0.000 196.96654
8601 Au 0 LAT Au 0 0.000 196.96654
8602 Au 0 LAT Au 0 0.000 196.96654
8603 Au 0 LAT Au 0 0.000 196.96654
8604 Au 0 LAT Au 0 0.000 196.96654
8605 Au 0 LAT Au 0 0.000 196.96654
8606 Au 0 LAT Au 0 0.000 196.96654
8607 Au 0 LAT Au 0 0.000 196.96654
8608 Au 0 LAT Au 0 0.000 196.96654
8609 Au 0 LAT Au 0 0.000 196.96654
8610 Au 0 LAT Au 0 0.000 196.96654
8611 Au 0 LAT Au 0 0.000 196.96654
8612 Au 0 LAT Au 0 0.000 196.96654
8613 Au 0 LAT Au 0 0.000 196.96654
8614 Au 0 LAT Au 0 0.000 196.96654
8615 Au 0 LAT Au 0 0.000 196.96654
8616 Au 0 LAT Au 0 0.000 196.96654
8617 Au 0 LAT Au 0 0.000 196.96654
8618 Au 0 LAT Au 0 0.000 196.96654
8619 Au 0 LAT Au 0 0.000 196.96654
8620 Au 0 LAT Au 0 0.000 196.96654
8621 Au 0 LAT Au 0 0.000 196.96654
8622 Au 0 LAT Au 0 0.000 196.96654
8623 Au 0 LAT Au 0 0.000 196.96654
8624 Au 0 LAT Au 0 0.000 196.96654
8625 Au 0 LAT Au 0 0.000 196.96654
8626 Au 0 LAT Au 0 0.000 196.96654
8627 Au 0 LAT Au 0 0.000 196.96654
8628 Au 0 LAT Au 0 0.000 196.96654
8629 Au 0 LAT Au 0 0.000 196.96654
8630 Au 0 LAT Au 0 0.000 196.96654
8631 Au 0 LAT Au 0 0.000 196.96654
8632 Au 0 LAT Au 0 0.000 196.96654
8633 Au 0 LAT Au 0 0.000 196.96654
8634 Au 0 LAT Au 0 0.000 196.96654
8635 Au 0 LAT Au 0 0.000 196.96654
8636 Au 0 LAT Au 0 0.000 196.96654
8637 Au 0 LAT Au 0 0.000 196.96654
8638 Au 0 LAT Au 0 0.000 196.96654
8639 Au 0 LAT Au 0 0.000 196.96654
8640 Au 0 LAT Au 0 0.000 196.96654
8641 Au 0 LAT Au 0 0.000 196.96654
8642 Au 0 LAT Au 0 0.000 196.96654
8643 Au 0 LAT Au 0 0.000 196.96654
8644 Au 0 LAT Au 0 0.000 196.96654
8645 Au 0 LAT Au 0 0.000 196.96654
8646 Au 0 LAT Au 0 0.000 196.96654
8647 Au 0 LAT Au 0 0.000 196.96654
8648 Au 0 LAT Au 0 0.000 196.96654
8649 Au 0 LAT Au 0 0.000 196.96654
8650 Au 0 LAT Au 0 0.000 196.96654
8651 Au 0 LAT Au 0 0.000 196.96654
8652 Au 0 LAT Au 0 0.000 196.96654
8653 Au 0 LAT Au 0 0.000 196.96654
8654 Au 0 LAT Au 0 0.000 196.96654
8655 Au 0 LAT Au 0 0.000 196.96654
8656 Au 0 LAT Au 0 0.000 196.96654
8657 Au 0 LAT Au 0 0.000 196.96654
8658 Au 0 LAT Au 0 0.000 196.96654
8659 Au 0 LAT Au 0 0.000 196.96654
8660 Au 0 LAT Au 0 0.000 196.96654
8661 Au 0 LAT Au 0 0.000 196.96654
8662 Au 0 LAT Au 0 0.000 196.96654
8663 Au 0 LAT Au 0 0.000 196.96654
8664 Au 0 LAT Au 0 0.000 196.96654
8665 Au 0 LAT Au 0 0.000 196.96654
8666 Au 0 LAT Au 0 0.000 196.96654
8667 Au 0 LAT Au 0 0.000 196.96654
8668 Au 0 LAT Au 0 0.000 196.96654
8669 Au 0 LAT Au 0 0.000 196.96654
8670 Au 0 LAT Au 0 0.000 196.96654
8671 Au 0 LAT Au 0 0.000 196.96654
8672 Au 0 LAT Au 0 0.000 196.96654
8673 Au 0 LAT Au 0 0.000 196.96654
8674 Au 0 LAT Au 0 0.000 196.96654
8675 Au 0 LAT Au 0 0.000 196.96654
8676 Au 0 LAT Au 0 0.000 196.96654
8677 Au 0 LAT Au 0 0.000 196.96654
8678 Au 0 LAT Au 0 0.000 196.96654
8679 Au 0 LAT Au 0 0.000 196.96654
8680 Au 0 LAT Au 0 0.000 196.96654
8681 Au 0 LAT Au 0 0.000 196.96654
8682 Au 0 LAT Au 0 0.000 196.96654
8683 Au 0 LAT Au 0 0.000 196.96654
8684 Au 0 LAT Au 0 0.000 196.96654
8685 Au 0 LAT Au 0 0.000 196.96654
8686 Au 0 LAT Au 0 0.000 196.96654
8687 Au 0 LAT Au 0 0.000 196.96654
8688 Au 0 LAT Au 0 0.000 196.96654
8689 Au 0 LAT Au 0 0.000 196.96654
8690 Au 0 LAT Au 0 0.000 196.96654
8691 Au 0 LAT Au 0 0.000 196.96654
8692 Au 0 LAT Au 0 0.000 196.96654
8693 Au 0 LAT Au 0 0.000 196.96654
8694 Au 0 LAT Au 0 0.000 196.96654
8695 Au 0 LAT Au 0 0.000 196.96654
8696 Au 0 LAT Au 0 0.000 196.96654
8697 Au 0 LAT Au 0 0.000 196.96654
8698 Au 0 LAT Au 0 0.000 196.96654
8699 Au 0 LAT Au 0 0.000 196.96654
8700 Au 0 LAT Au 0 0.000 196.96654
8701 Au 0 LAT Au 0 0.000 196.96654
8702 Au 0 LAT Au 0 0.000 196.96654
8703 Au 0 LAT Au 0 0.000 196.96654
8704 Au 0 LAT Au 0 0.000 196.96654
8705 Au 0 LAT Au 0 0.000 196.96654
8706 Au 0 LAT Au 0 0.000 196.96654
8707 Au 0 LAT Au 0 0.000 196.96654
8708 Au 0 LAT Au 0 0.000 196.96654
8709 Au 0 LAT Au 0 0.000 196.96654
8710 Au 0 LAT Au 0 0.000 196.96654
8711 Au 0 LAT Au 0 0.000 196.96654
8712 Au 0 LAT Au 0 0.000 196.96654
8713 Au 0 LAT Au 0 0.000 196.96654
8714 Au 0 LAT Au 0 0.000 196.96654
8715 Au 0 LAT Au 0 0.000 196.96654
8716 Au 0 LAT Au 0 0.000 196.96654
8717 Au 0 LAT Au 0 0.000 196.96654
8718 Au 0 LAT Au 0 0.000 196.96654
8719 Au 0 LAT Au 0 0.000 196.96654
8720 Au 0 LAT Au 0 0.000 196.96654
8721 Au 0 LAT Au 0 0.000 196.96654
8722 Au 0 LAT Au 0 0.000 196.96654
8723 Au 0 LAT Au 0 0.000 196.96654
8724 Au 0 LAT Au 0 0.000 196.96654
8725 Au 0 LAT Au 0 0.000 196.96654
8726 Au 0 LAT Au 0 0.000 196.96654
8727 Au 0 LAT Au 0 0.000 196.96654
8728 Au 0 LAT Au 0 0.000 196.96654
8729 Au 0 LAT Au 0 0.000 196.96654
8730 Au 0 LAT Au 0 0.000 196.96654
8731 Au 0 LAT Au 0 0.000 196.96654
8732 Au 0 LAT Au 0 0.000 196.96654
8733 Au 0 LAT Au 0 0.000 196.96654
8734 Au 0 LAT Au 0 0.000 196.96654
8735 Au 0 LAT Au 0 0.000 196.96654
8736 Au 0 LAT Au 0 0.000 196.96654
8737 Au 0 LAT Au 0 0.000 196.96654
8738 Au 0 LAT Au 0 0.000 196.96654
8739 Au 0 LAT Au 0 0.000 196.96654
8740 Au 0 LAT Au 0 0.000 196.96654
8741 Au 0 LAT Au 0 0.000 196.96654
8742 Au 0 LAT Au 0 0.000 196.96654
8743 Au 0 LAT Au 0 0.000 196.96654
8744 Au 0 LAT Au 0 0.000 196.96654
8745 Au 0 LAT Au 0 0.000 196.96654
8746 Au 0 LAT Au 0 0.000 196.96654
8747 Au 0 LAT Au 0 0.000 196.96654
8748 Au 0 LAT Au 0 0.000 196.96654
8749 Au 0 LAT Au 0 0.000 196.96654
8750 Au 0 LAT Au 0 0.000 196.96654
8751 Au 0 LAT Au 0 0.000 196.96654
8752 Au 0 LAT Au 0 0.000 196.96654
8753 Au 0 LAT Au 0 0.000 196.96654
8754 Au 0 LAT Au 0 0.000 196.96654
8755 Au 0 LAT Au 0 0.000 196.96654
8756 Au 0 LAT Au 0 0.000 196.96654
8757 Au 0 LAT Au 0 0.000 196.96654
8758 Au 0 LAT Au 0 0.000 196.96654
8759 Au 0 LAT Au 0 0.000 196.96654
8760 Au 0 LAT Au 0 0.000 196.96654
8761 Au 0 LAT Au 0 0.000 196.96654
8762 Au 0 LAT Au 0 0.000 196.96654
8763 Au 0 LAT Au 0 0.000 196.96654
8764 Au 0 LAT Au 0 0.000 196.96654
8765 Au 0 LAT Au 0 0.000 196.96654
8766 Au 0 LAT Au 0 0.000 196.96654
8767 Au 0 LAT Au 0 0.000 196.96654
8768 Au 0 LAT Au 0 0.000 196.96654
8769 Au 0 LAT Au 0 0.000 196.96654
8770 Au 0 LAT Au 0 0.000 196.96654
8771 Au 0 LAT Au 0 0.000 196.96654
8772 Au 0 LAT Au 0 0.000 196.96654
8773 Au 0 LAT Au 0 0.000 196.96654
8774 Au 0 LAT Au 0 0.000 196.96654
8775 Au 0 LAT Au 0 0.000 196.96654
8776 Au 0 LAT Au 0 0.000 196.96654
8777 Au 0 LAT Au 0 0.000 196.96654
8778 Au 0 LAT Au 0 0.000 196.96654
8779 Au 0 LAT Au 0 0.000 196.96654
8780 Au 0 LAT Au 0 0.000 196.96654
8781 Au 0 LAT Au 0 0.000 196.96654
8782 Au 0 LAT Au 0 0.000 196.96654
8783 Au 0 LAT Au 0 0.000 196.96654
8784 Au 0 LAT Au 0 0.000 196.96654
8785 Au 0 LAT Au 0 0.000 196.96654
8786 Au 0 LAT Au 0 0.000 196.96654
8787 Au 0 LAT Au 0 0.000 196.96654
8788 Au 0 LAT Au 0 0.000 196.96654
8789 Au 0 LAT Au 0 0.000 196.96654
8790 Au 0 LAT Au 0 0.000 196.96654
8791 Au 0 LAT Au 0 0.000 196.96654
8792 Au 0 LAT Au 0 0.000 196.96654
8793 Au 0 LAT Au 0 0.000 196.96654
8794 Au 0 LAT Au 0 0.000 196.96654
8795 Au 0 LAT Au 0 0.000 196.96654
8796 Au 0 LAT Au 0 0.000 196.96654
8797 Au 0 LAT Au 0 0.000 196.96654
8798 Au 0 LAT Au 0 0.000 196.96654
8799 Au 0 LAT Au 0 0.000 196.96654
8800 Au 0 LAT Au 0 0.000 196.96654
8801 Au 0 LAT Au 0 0.000 196.96654
8802 Au 0 LAT Au 0 0.000 196.96654
8803 Au 0 LAT Au 0 0.000 196.96654
8804 Au 0 LAT Au 0 0.000 196.96654
8805 Au 0 LAT Au 0 0.000 196.96654
8806 Au 0 LAT Au 0 0.000 196.96654
8807 Au 0 LAT Au 0 0.000 196.96654
8808 Au 0 LAT Au 0 0.000 196.96654
8809 Au 0 LAT Au 0 0.000 196.96654
8810 Au 0 LAT Au 0 0.000 196.96654
8811 Au 0 LAT Au 0 0.000 196.96654
8812 Au 0 LAT Au 0 0.000 196.96654
8813 Au 0 LAT Au 0 0.000 196.96654
8814 Au 0 LAT Au 0 0.000 196.96654
8815 Au 0 LAT Au 0 0.000 196.96654
8816 Au 0 LAT Au 0 0.000 196.96654
8817 Au 0 LAT Au 0 0.000 196.96654
8818 Au 0 LAT Au 0 0.000 196.96654
8819 Au 0 LAT Au 0 0.000 196.96654
8820 Au 0 LAT Au 0 0.000 196.96654
8821 Au 0 LAT Au 0 0.000 196.96654
8822 Au 0 LAT Au 0 0.000 196.96654
8823 Au 0 LAT Au 0 0.000 196.96654
8824 Au 0 LAT Au 0 0.000 196.96654
8825 Au 0 LAT Au 0 0.000 196.96654
8826 Au 0 LAT Au 0 0.000 196.96654
8827 Au 0 LAT Au 0 0.000 196.96654
8828 Au 0 LAT Au 0 0.000 196.96654
8829 Au 0 LAT Au 0 0.000 196.96654
8830 Au 0 LAT Au 0 0.000 196.96654
8831 Au 0 LAT Au 0 0.000 196.96654
8832 Au 0 LAT Au 0 0.000 196.96654
8833 Au 0 LAT Au 0 0.000 196.96654
8834 Au 0 LAT Au 0 0.000 196.96654
8835 Au 0 LAT Au 0 0.000 196.96654
8836 Au 0 LAT Au 0 0.000 196.96654
8837 Au 0 LAT Au 0 0.000 196.96654
8838 Au 0 LAT Au 0 0.000 196.96654
8839 Au 0 LAT Au 0 0.000 196.96654
8840 Au 0 LAT Au 0 0.000 196.96654
8841 Au 0 LAT Au 0 0.000 196.96654
8842 Au 0 LAT Au 0 0.000 196.96654
8843 Au 0 LAT Au 0 0.000 196.96654
8844 Au 0 LAT Au 0 0.000 196.96654
8845 Au 0 LAT Au 0 0.000 196.96654
8846 Au 0 LAT Au 0 0.000 196.96654
8847 Au 0 LAT Au 0 0.000 196.96654
8848 Au 0 LAT Au 0 0.000 196.96654
8849 Au 0 LAT Au 0 0.000 196.96654
8850 Au 0 LAT Au 0 0.000 196.96654
8851 Au 0 LAT Au 0 0.000 196.96654
8852 Au 0 LAT Au 0 0.000 196.96654
8853 Au 0 LAT Au 0 0.000 196.96654
8854 Au 0 LAT Au 0 0.000 196.96654
8855 Au 0 LAT Au 0 0.000 196.96654
8856 Au 0 LAT Au 0 0.000 196.96654
8857 Au 0 LAT Au 0 0.000 196.96654
8858 Au 0 LAT Au 0 0.000 196.96654
8859 Au 0 LAT Au 0 0.000 196.96654
8860 Au 0 LAT Au 0 0.000 196.96654
8861 Au 0 LAT Au 0 0.000 196.96654
8862 Au 0 LAT Au 0 0.000 196.96654
8863 Au 0 LAT Au 0 0.000 196.96654
8864 Au 0 LAT Au 0 0.000 196.96654
8865 Au 0 LAT Au 0 0.000 196.96654
8866 Au 0 LAT Au 0 0.000 196.96654
8867 Au 0 LAT Au 0 0.000 196.96654
8868 Au 0 LAT Au 0 0.000 196.96654
8869 Au 0 LAT Au 0 0.000 196.96654
8870 Au 0 LAT Au 0 0.000 196.96654
8871 Au 0 LAT Au 0 0.000 196.96654
8872 Au 0 LAT Au 0 0.000 196.96654
8873 Au 0 LAT Au 0 0.000 196.96654
8874 Au 0 LAT Au 0 0.000 196.96654
8875 Au 0 LAT Au 0 0.000 196.96654
8876 Au 0 LAT Au 0 0.000 196.96654
8877 Au 0 LAT Au 0 0.000 196.96654
8878 Au 0 LAT Au 0 0.000 196.96654
8879 Au 0 LAT Au 0 0.000 196.96654
8880 Au 0 LAT Au 0 0.000 196.96654
8881 Au 0 LAT Au 0 0.000 196.96654
8882 Au 0 LAT Au 0 0.000 196.96654
8883 Au 0 LAT Au 0 0.000 196.96654
8884 Au 0 LAT Au 0 0.000 196.96654
8885 Au 0 LAT Au 0 0.000 196.96654
8886 Au 0 LAT Au 0 0.000 196.96654
8887 Au 0 LAT Au 0 0.000 196.96654
8888 Au 0 LAT Au 0 0.000 196.96654
8889 Au 0 LAT Au 0 0.000 196.96654
8890 Au 0 LAT Au 0 0.000 196.96654
8891 Au 0 LAT Au 0 0.000 196.96654
8892 Au 0 LAT Au 0 0.000 196.96654
8893 Au 0 LAT Au 0 0.000 196.96654
8894 Au 0 LAT Au 0 0.000 196.96654
8895 Au 0 LAT Au 0 0.000 196.96654
8896 Au 0 LAT Au 0 0.000 196.96654
8897 Au 0 LAT Au 0 0.000 196.96654
8898 Au 0 LAT Au 0 0.000 196.96654
8899 Au 0 LAT Au 0 0.000 196.96654
8900 Au 0 LAT Au 0 0.000 196.96654
8901 Au 0 LAT Au 0 0.000 196.96654
8902 Au 0 LAT Au 0 0.000 196.96654
8903 Au 0 LAT Au 0 0.000 196.96654
8904 Au 0 LAT Au 0 0.000 196.96654
8905 Au 0 LAT Au 0 0.000 196.96654
8906 Au 0 LAT Au 0 0.000 196.96654
8907 Au 0 LAT Au 0 0.000 196.96654
8908 Au 0 LAT Au 0 0.000 196.96654
8909 Au 0 LAT Au 0 0.000 196.96654
8910 Au 0 LAT Au 0 0.000 196.96654
8911 Au 0 LAT Au 0 0.000 196.96654
8912 Au 0 LAT Au 0 0.000 196.96654
8913 Au 0 LAT Au 0 0.000 196.96654
8914 Au 0 LAT Au 0 0.000 196.96654
8915 Au 0 LAT Au 0 0.000 196.96654
8916 Au 0 LAT Au 0 0.000 196.96654
8917 Au 0 LAT Au 0 0.000 196.96654
8918 Au 0 LAT Au 0 0.000 196.96654
8919 Au 0 LAT Au 0 0.000 196.96654
8920 Au 0 LAT Au 0 0.000 196.96654
8921 Au 0 LAT Au 0 0.000 196.96654
8922 Au 0 LAT Au 0 0.000 196.96654
8923 Au 0 LAT Au 0 0.000 196.96654
8924 Au 0 LAT Au 0 0.000 196.96654
8925 Au 0 LAT Au 0 0.000 196.96654
8926 Au 0 LAT Au 0 0.000 196.96654
8927 Au 0 LAT Au 0 0.000 196.96654
8928 Au 0 LAT Au 0 0.000 196.96654
8929 Au 0 LAT Au 0 0.000 196.96654
8930 Au 0 LAT Au 0 0.000 196.96654
8931 Au 0 LAT Au 0 0.000 196.96654
8932 Au 0 LAT Au 0 0.000 196.96654
8933 Au 0 LAT Au 0 0.000 196.96654
8934 Au 0 LAT Au 0 0.000 196.96654
8935 Au 0 LAT Au 0 0.000 196.96654
8936 Au 0 LAT Au 0 0.000 196.96654
8937 Au 0 LAT Au 0 0.000 196.96654
8938 Au 0 LAT Au 0 0.000 196.96654
8939 Au 0 LAT Au 0 0.000 196.96654
8940 Au 0 LAT Au 0 0.000 196.96654
8941 Au 0 LAT Au 0 0.000 196.96654
8942 Au 0 LAT Au 0 0.000 196.96654
8943 Au 0 LAT Au 0 0.000 196.96654
8944 Au 0 LAT Au 0 0.000 196.96654
8945 Au 0 LAT Au 0 0.000 196.96654
8946 Au 0 LAT Au 0 0.000 196.96654
8947 Au 0 LAT Au 0 0.000 196.96654
8948 Au 0 LAT Au 0 0.000 196.96654
8949 Au 0 LAT Au 0 0.000 196.96654
8950 Au 0 LAT Au 0 0.000 196.96654
8951 Au 0 LAT Au 0 0.000 196.96654
8952 Au 0 LAT Au 0 0.000 196.96654
8953 Au 0 LAT Au 0 0.000 196.96654
8954 Au 0 LAT Au 0 0.000 196.96654
8955 Au 0 LAT Au 0 0.000 196.96654
8956 Au 0 LAT Au 0 0.000 196.96654
8957 Au 0 LAT Au 0 0.000 196.96654
8958 Au 0 LAT Au 0 0.000 196.96654
8959 Au 0 LAT Au 0 0.000 196.96654
8960 Au 0 LAT Au 0 0.000 196.96654
8961 Au 0 LAT Au 0 0.000 196.96654
8962 Au 0 LAT Au 0 0.000 196.96654
8963 Au 0 LAT Au 0 0.000 196.96654
8964 Au 0 LAT Au 0 0.000 196.96654
8965 Au 0 LAT Au 0 0.000 196.96654
8966 Au 0 LAT Au 0 0.000 196.96654
8967 Au 0 LAT Au 0 0.000 196.96654
8968 Au 0 LAT Au 0 0.000 196.96654
8969 Au 0 LAT Au 0 0.000 196.96654
8970 Au 0 LAT Au 0 0.000 196.96654
8971 Au 0 LAT Au 0 0.000 196.96654
8972 Au 0 LAT Au 0 0.000 196.96654
8973 Au 0 LAT Au 0 0.000 196.96654
8974 Au 0 LAT Au 0 0.000 196.96654
8975 Au 0 LAT Au 0 0.000 196.96654
8976 Au 0 LAT Au 0 0.000 196.96654
8977 Au 0 LAT Au 0 0.000 196.96654
8978 Au 0 LAT Au 0 0.000 196.96654
8979 Au 0 LAT Au 0 0.000 196.96654
8980 Au 0 LAT Au 0 0.000 196.96654
8981 Au 0 LAT Au 0 0.000 196.96654
8982 Au 0 LAT Au 0 0.000 196.96654
8983 Au 0 LAT Au 0 0.000 196.96654
8984 Au 0 LAT Au 0 0.000 196.96654
8985 Au 0 LAT Au 0 0.000 196.96654
8986 Au 0 LAT Au 0 0.000 196.96654
8987 Au 0 LAT Au 0 0.000 196.96654
8988 Au 0 LAT Au 0 0.000 196.96654
8989 Au 0 LAT Au 0 0.000 196.96654
8990 Au 0 LAT Au 0 0.000 196.96654
8991 Au 0 LAT Au 0 0.000 196.96654
8992 Au 0 LAT Au 0 0.000 196.96654
8993 Au 0 LAT Au 0 0.000 196.96654
8994 Au 0 LAT Au 0 0.000 196.96654
8995 Au 0 LAT Au 0 0.000 196.96654
8996 Au 0 LAT Au 0 0.000 196.96654
8997 Au 0 LAT Au 0 0.000 196.96654
8998 Au 0 LAT Au 0 0.000 196.96654
8999 Au 0 LAT Au 0 0.000 196.96654
9000 Au 0 LAT Au 0 0.000 196.96654
9001 Au 0 LAT Au 0 0.000 196.96654
9002 Au 0 LAT Au 0 0.000 196.96654
9003 Au 0 LAT Au 0 0.000 196.96654
9004 Au 0 LAT Au 0 0.000 196.96654
9005 Au 0 LAT Au 0 0.000 196.96654
9006 Au 0 LAT Au 0 0.000 196.96654
9007 Au 0 LAT Au 0 0.000 196.96654
9008 Au 0 LAT Au 0 0.000 196.96654
9009 Au 0 LAT Au 0 0.000 196.96654
9010 Au 0 LAT Au 0 0.000 196.96654
9011 Au 0 LAT Au 0 0.000 196.96654
9012 Au 0 LAT Au 0 0.000 196.96654
9013 Au 0 LAT Au 0 0.000 196.96654
9014 Au 0 LAT Au 0 0.000 196.96654
9015 Au 0 LAT Au 0 0.000 196.96654
9016 Au 0 LAT Au 0 0.000 196.96654
9017 Au 0 LAT Au 0 0.000 196.96654
9018 Au 0 LAT Au 0 0.000 196.96654
9019 Au 0 LAT Au 0 0.000 196.96654
9020 Au 0 LAT Au 0 0.000 196.96654
9021 Au 0 LAT Au 0 0.000 196.96654
9022 Au 0 LAT Au 0 0.000 196.96654
9023 Au 0 LAT Au 0 0.000 196.96654
9024 Au 0 LAT Au 0 0.000 196.96654
9025 Au 0 LAT Au 0 0.000 196.96654
9026 Au 0 LAT Au 0 0.000 196.96654
9027 Au 0 LAT Au 0 0.000 196.96654
9028 Au 0 LAT Au 0 0.000 196.96654
9029 Au 0 LAT Au 0 0.000 196.96654
9030 Au 0 LAT Au 0 0.000 196.96654
9031 Au 0 LAT Au 0 0.000 196.96654
9032 Au 0 LAT Au 0 0.000 196.96654
9033 Au 0 LAT Au 0 0.000 196.96654
9034 Au 0 LAT Au 0 0.000 196.96654
9035 Au 0 LAT Au 0 0.000 196.96654
9036 Au 0 LAT Au 0 0.000 196.96654
9037 Au 0 LAT Au 0 0.000 196.96654
9038 Au 0 LAT Au 0 0.000 196.96654
9039 Au 0 LAT Au 0 0.000 196.96654
9040 Au 0 LAT Au 0 0.000 196.96654
9041 Au 0 LAT Au 0 0.000 196.96654
9042 Au 0 LAT Au 0 0.000 196.96654
9043 Au 0 LAT Au 0 0.000 196.96654
9044 Au 0 LAT Au 0 0.000 196.96654
9045 Au 0 LAT Au 0 0.000 196.96654
9046 Au 0 LAT Au 0 0.000 196.96654
9047 Au 0 LAT Au 0 0.000 196.96654
9048 Au 0 LAT Au 0 0.000 196.96654
9049 Au 0 LAT Au 0 0.000 196.96654
9050 Au 0 LAT Au 0 0.000 196.96654
9051 Au 0 LAT Au 0 0.000 196.96654
9052 Au 0 LAT Au 0 0.000 196.96654
9053 Au 0 LAT Au 0 0.000 196.96654
9054 Au 0 LAT Au 0 0.000 196.96654
9055 Au 0 LAT Au 0 0.000 196.96654
9056 Au 0 LAT Au 0 0.000 196.96654
9057 Au 0 LAT Au 0 0.000 196.96654
9058 Au 0 LAT Au 0 0.000 196.96654
9059 Au 0 LAT Au 0 0.000 196.96654
9060 Au 0 LAT Au 0 0.000 196.96654
9061 Au 0 LAT Au 0 0.000 196.96654
9062 Au 0 LAT Au 0 0.000 196.96654
9063 Au 0 LAT Au 0 0.000 196.96654
9064 Au 0 LAT Au 0 0.000 196.96654
9065 Au 0 LAT Au 0 0.000 196.96654
9066 Au 0 LAT Au 0 0.000 196.96654
9067 Au 0 LAT Au 0 0.000 196.96654
9068 Au 0 LAT Au 0 0.000 196.96654
9069 Au 0 LAT Au 0 0.000 196.96654
9070 Au 0 LAT Au 0 0.000 196.96654
9071 Au 0 LAT Au 0 0.000 196.96654
9072 Au 0 LAT Au 0 0.000 196.96654
9073 Au 0 LAT Au 0 0.000 196.96654
9074 Au 0 LAT Au 0 0.000 196.96654
9075 Au 0 LAT Au 0 0.000 196.96654
9076 Au 0 LAT Au 0 0.000 196.96654
9077 Au 0 LAT Au 0 0.000 196.96654
9078 Au 0 LAT Au 0 0.000 196.96654
9079 Au 0 LAT Au 0 0.000 196.96654
9080 Au 0 LAT Au 0 0.000 196.96654
9081 Au 0 LAT Au 0 0.000 196.96654
9082 Au 0 LAT Au 0 0.000 196.96654
9083 Au 0 LAT Au 0 0.000 196.96654
9084 Au 0 LAT Au 0 0.000 196.96654
9085 Au 0 LAT Au 0 0.000 196.96654
9086 Au 0 LAT Au 0 0.000 196.96654
9087 Au 0 LAT Au 0 0.000 196.96654
9088 Au 0 LAT Au 0 0.000 196.96654
9089 Au 0 LAT Au 0 0.000 196.96654
9090 Au 0 LAT Au 0 0.000 196.96654
9091 Au 0 LAT Au 0 0.000 196.96654
9092 Au 0 LAT Au 0 0.000 196.96654
9093 Au 0 LAT Au 0 0.000 196.96654
9094 Au 0 LAT Au 0 0.000 196.96654
9095 Au 0 LAT Au 0 0.000 196.96654
9096 Au 0 LAT Au 0 0.000 196.96654
9097 Au 0 LAT Au 0 0.000 196.96654
9098 Au 0 LAT Au 0 0.000 196.96654
9099 Au 0 LAT Au 0 0.000 196.96654
9100 Au 0 LAT Au 0 0.000 196.96654
9101 Au 0 LAT Au 0 0.000 196.96654
9102 Au 0 LAT Au 0 0.000 196.96654
9103 Au 0 LAT Au 0 0.000 196.96654
9104 Au 0 LAT Au 0 0.000 196.96654
9105 Au 0 LAT Au 0 0.000 196.96654
9106 Au 0 LAT Au 0 0.000 196.96654
9107 Au 0 LAT Au 0 0.000 196.96654
9108 Au 0 LAT Au 0 0.000 196.96654
9109 Au 0 LAT Au 0 0.000 196.96654
9110 Au 0 LAT Au 0 0.000 196.96654
9111 Au 0 LAT Au 0 0.000 196.96654
9112 Au 0 LAT Au 0 0.000 196.96654
9113 Au 0 LAT Au 0 0.000 196.96654
9114 Au 0 LAT Au 0 0.000 196.96654
9115 Au 0 LAT Au 0 0.000 196.96654
9116 Au 0 LAT Au 0 0.000 196.96654
9117 Au 0 LAT Au 0 0.000 196.96654
9118 Au 0 LAT Au 0 0.000 196.96654
9119 Au 0 LAT Au 0 0.000 196.96654
9120 Au 0 LAT Au 0 0.000 196.96654
9121 Au 0 LAT Au 0 0.000 196.96654
9122 Au 0 LAT Au 0 0.000 196.96654
9123 Au 0 LAT Au 0 0.000 196.96654
9124 Au 0 LAT Au 0 0.000 196.96654
9125 Au 0 LAT Au 0 0.000 196.96654
9126 Au 0 LAT Au 0 0.000 196.96654
9127 Au 0 LAT Au 0 0.000 196.96654
9128 Au 0 LAT Au 0 0.000 196.96654
9129 Au 0 LAT Au 0 0.000 196.96654
9130 Au 0 LAT Au 0 0.000 196.96654
9131 Au 0 LAT Au 0 0.000 196.96654
9132 Au 0 LAT Au 0 0.000 196.96654
9133 Au 0 LAT Au 0 0.000 196.96654
9134 Au 0 LAT Au 0 0.000 196.96654
9135 Au 0 LAT Au 0 0.000 196.96654
9136 Au 0 LAT Au 0 0.000 196.96654
9137 Au 0 LAT Au 0 0.000 196.96654
9138 Au 0 LAT Au 0 0.000 196.96654
9139 Au 0 LAT Au 0 0.000 196.96654
9140 Au 0 LAT Au 0 0.000 196.96654
9141 Au 0 LAT Au 0 0.000 196.96654
9142 Au 0 LAT Au 0 0.000 196.96654
9143 Au 0 LAT Au 0 0.000 196.96654
9144 Au 0 LAT Au 0 0.000 196.96654
9145 Au 0 LAT Au 0 0.000 196.96654
9146 Au 0 LAT Au 0 0.000 196.96654
9147 Au 0 LAT Au 0 0.000 196.96654
9148 Au 0 LAT Au 0 0.000 196.96654
9149 Au 0 LAT Au 0 0.000 196.96654
9150 Au 0 LAT Au 0 0.000 196.96654
9151 Au 0 LAT Au 0 0.000 196.96654
9152 Au 0 LAT Au 0 0.000 196.96654
9153 Au 0 LAT Au 0 0.000 196.96654
9154 Au 0 LAT Au 0 0.000 196.96654
9155 Au 0 LAT Au 0 0.000 196.96654
9156 Au 0 LAT Au 0 0.000 196.96654
9157 Au 0 LAT Au 0 0.000 196.96654
9158 Au 0 LAT Au 0 0.000 196.96654
9159 Au 0 LAT Au 0 0.000 196.96654
9160 Au 0 LAT Au 0 0.000 196.96654
9161 Au 0 LAT Au 0 0.000 196.96654
9162 Au 0 LAT Au 0 0.000 196.96654
9163 Au 0 LAT Au 0 0.000 196.96654
9164 Au 0 LAT Au 0 0.000 196.96654
9165 Au 0 LAT Au 0 0.000 196.96654
9166 Au 0 LAT Au 0 0.000 196.96654
9167 Au 0 LAT Au 0 0.000 196.96654
9168 Au 0 LAT Au 0 0.000 196.96654
9169 Au 0 LAT Au 0 0.000 196.96654
9170 Au 0 LAT Au 0 0.000 196.96654
9171 Au 0 LAT Au 0 0.000 196.96654
9172 Au 0 LAT Au 0 0.000 196.96654
9173 Au 0 LAT Au 0 0.000 196.96654
9174 Au 0 LAT Au 0 0.000 196.96654
9175 Au 0 LAT Au 0 0.000 196.96654
9176 Au 0 LAT Au 0 0.000 196.96654
9177 Au 0 LAT Au 0 0.000 196.96654
9178 Au 0 LAT Au 0 0.000 196.96654
9179 Au 0 LAT Au 0 0.000 196.96654
9180 Au 0 LAT Au 0 0.000 196.96654
9181 Au 0 LAT Au 0 0.000 196.96654
9182 Au 0 LAT Au 0 0.000 196.96654
9183 Au 0 LAT Au 0 0.000 196.96654
9184 Au 0 LAT Au 0 0.000 196.96654
9185 Au 0 LAT Au 0 0.000 196.96654
9186 Au 0 LAT Au 0 0.000 196.96654
9187 Au 0 LAT Au 0 0.000 196.96654
9188 Au 0 LAT Au 0 0.000 196.96654
9189 Au 0 LAT Au 0 0.000 196.96654
9190 Au 0 LAT Au 0 0.000 196.96654
9191 Au 0 LAT Au 0 0.000 196.96654
9192 Au 0 LAT Au 0 0.000 196.96654
9193 Au 0 LAT Au 0 0.000 196.96654
9194 Au 0 LAT Au 0 0.000 196.96654
9195 Au 0 LAT Au 0 0.000 196.96654
9196 Au 0 LAT Au 0 0.000 196.96654
9197 Au 0 LAT Au 0 0.000 196.96654
9198 Au 0 LAT Au 0 0.000 196.96654
9199 Au 0 LAT Au 0 0.000 196.96654
9200 Au 0 LAT Au 0 0.000 196.96654
9201 Au 0 LAT Au 0 0.000 196.96654
9202 Au 0 LAT Au 0 0.000 196.96654
9203 Au 0 LAT Au 0 0.000 196.96654
9204 Au 0 LAT Au 0 0.000 196.96654
9205 Au 0 LAT Au 0 0.000 196.96654
9206 Au 0 LAT Au 0 0.000 196.96654
9207 Au 0 LAT Au 0 0.000 196.96654
9208 Au 0 LAT Au 0 0.000 196.96654
9209 Au 0 LAT Au 0 0.000 196.96654
9210 Au 0 LAT Au 0 0.000 196.96654
9211 Au 0 LAT Au 0 0.000 196.96654
9212 Au 0 LAT Au 0 0.000 196.96654
9213 Au 0 LAT Au 0 0.000 196.96654
9214 Au 0 LAT Au 0 0.000 196.96654
9215 Au 0 LAT Au 0 0.000 196.96654
9216 Au 0 LAT Au 0 0.000 196.96654
9217 Au 0 LAT Au 0 0.000 196.96654
9218 Au 0 LAT Au 0 0.000 196.96654
9219 Au 0 LAT Au 0 0.000 196.96654
9220 Au 0 LAT Au 0 0.000 196.96654
9221 Au 0 LAT Au 0 0.000 196.96654
9222 Au 0 LAT Au 0 0.000 196.96654
9223 Au 0 LAT Au 0 0.000 196.96654
9224 Au 0 LAT Au 0 0.000 196.96654
9225 Au 0 LAT Au 0 0.000 196.96654
9226 Au 0 LAT Au 0 0.000 196.96654
9227 Au 0 LAT Au 0 0.000 196.96654
9228 Au 0 LAT Au 0 0.000 196.96654
9229 Au 0 LAT Au 0 0.000 196.96654
9230 Au 0 LAT Au 0 0.000 196.96654
9231 Au 0 LAT Au 0 0.000 196.96654
9232 Au 0 LAT Au 0 0.000 196.96654
9233 Au 0 LAT Au 0 0.000 196.96654
9234 Au 0 LAT Au 0 0.000 196.96654
9235 Au 0 LAT Au 0 0.000 196.96654
9236 Au 0 LAT Au 0 0.000 196.96654
9237 Au 0 LAT Au 0 0.000 196.96654
9238 Au 0 LAT Au 0 0.000 196.96654
9239 Au 0 LAT Au 0 0.000 196.96654
9240 Au 0 LAT Au 0 0.000 196.96654
9241 Au 0 LAT Au 0 0.000 196.96654
9242 Au 0 LAT Au 0 0.000 196.96654
9243 Au 0 LAT Au 0 0.000 196.96654
9244 Au 0 LAT Au 0 0.000 196.96654
9245 Au 0 LAT Au 0 0.000 196.96654
9246 Au 0 LAT Au 0 0.000 196.96654
9247 Au 0 LAT Au 0 0.000 196.96654
9248 Au 0 LAT Au 0 0.000 196.96654
9249 Au 0 LAT Au 0 0.000 196.96654
9250 Au 0 LAT Au 0 0.000 196.96654
9251 Au 0 LAT Au 0 0.000 196.96654
9252 Au 0 LAT Au 0 0.000 196.96654
9253 Au 0 LAT Au 0 0.000 196.96654
9254 Au 0 LAT Au 0 0.000 196.96654
9255 Au 0 LAT Au 0 0.000 196.96654
9256 Au 0 LAT Au 0 0.000 196.96654
9257 Au 0 LAT Au 0 0.000 196.96654
9258 Au 0 LAT Au 0 0.000 196.96654
9259 Au 0 LAT Au 0 0.000 196.96654
9260 Au 0 LAT Au 0 0.000 196.96654
9261 Au 0 LAT Au 0 0.000 196.96654
9262 Au 0 LAT Au 0 0.000 196.96654
9263 Au 0 LAT Au 0 0.000 196.96654
9264 Au 0 LAT Au 0 0.000 196.96654
9265 Au 0 LAT Au 0 0.000 196.96654
9266 Au 0 LAT Au 0 0.000 196.96654
9267 Au 0 LAT Au 0 0.000 196.96654
9268 Au 0 LAT Au 0 0.000 196.96654
9269 Au 0 LAT Au 0 0.000 196.96654
9270 Au 0 LAT Au 0 0.000 196.96654
9271 Au 0 LAT Au 0 0.000 196.96654
9272 Au 0 LAT Au 0 0.000 196.96654
9273 Au 0 LAT Au 0 0.000 196.96654
9274 Au 0 LAT Au 0 0.000 196.96654
9275 Au 0 LAT Au 0 0.000 196.96654
9276 Au 0 LAT Au 0 0.000 196.96654
9277 Au 0 LAT Au 0 0.000 196.96654
9278 Au 0 LAT Au 0 0.000 196.96654
9279 Au 0 LAT Au 0 0.000 196.96654
9280 Au 0 LAT Au 0 0.000 196.96654
9281 Au 0 LAT Au 0 0.000 196.96654
9282 Au 0 LAT Au 0 0.000 196.96654
9283 Au 0 LAT Au 0 0.000 196.96654
9284 Au 0 LAT Au 0 0.000 196.96654
9285 Au 0 LAT Au 0 0.000 196.96654
9286 Au 0 LAT Au 0 0.000 196.96654
9287 Au 0 LAT Au 0 0.000 196.96654
9288 Au 0 LAT Au 0 0.000 196.96654
9289 Au 0 LAT Au 0 0.000 196.96654
9290 Au 0 LAT Au 0 0.000 196.96654
9291 Au 0 LAT Au 0 0.000 196.96654
9292 Au 0 LAT Au 0 0.000 196.96654
9293 Au 0 LAT Au 0 0.000 196.96654
9294 Au 0 LAT Au 0 0.000 196.96654
9295 Au 0 LAT Au 0 0.000 196.96654
9296 Au 0 LAT Au 0 0.000 196.96654
9297 Au 0 LAT Au 0 0.000 196.96654
9298 Au 0 LAT Au 0 0.000 196.96654
9299 Au 0 LAT Au 0 0.000 196.96654
9300 Au 0 LAT Au 0 0.000 196.96654
9301 Au 0 LAT Au 0 0.000 196.96654
9302 Au 0 LAT Au 0 0.000 196.96654
9303 Au 0 LAT Au 0 0.000 196.96654
9304 Au 0 LAT Au 0 0.000 196.96654
9305 Au 0 LAT Au 0 0.000 196.96654
9306 Au 0 LAT Au 0 0.000 196.96654
9307 Au 0 LAT Au 0 0.000 196.96654
9308 Au 0 LAT Au 0 0.000 196.96654
9309 Au 0 LAT Au 0 0.000 196.96654
9310 Au 0 LAT Au 0 0.000 196.96654
9311 Au 0 LAT Au 0 0.000 196.96654
9312 Au 0 LAT Au 0 0.000 196.96654
9313 Au 0 LAT Au 0 0.000 196.96654
9314 Au 0 LAT Au 0 0.000 196.96654
9315 Au 0 LAT Au 0 0.000 196.96654
9316 Au 0 LAT Au 0 0.000 196.96654
9317 Au 0 LAT Au 0 0.000 196.96654
9318 Au 0 LAT Au 0 0.000 196.96654
9319 Au 0 LAT Au 0 0.000 196.96654
9320 Au 0 LAT Au 0 0.000 196.96654
9321 Au 0 LAT Au 0 0.000 196.96654
9322 Au 0 LAT Au 0 0.000 196.96654
9323 Au 0 LAT Au 0 0.000 196.96654
9324 Au 0 LAT Au 0 0.000 196.96654
9325 Au 0 LAT Au 0 0.000 196.96654
9326 Au 0 LAT Au 0 0.000 196.96654
9327 Au 0 LAT Au 0 0.000 196.96654
9328 Au 0 LAT Au 0 0.000 196.96654
9329 Au 0 LAT Au 0 0.000 196.96654
9330 Au 0 LAT Au 0 0.000 196.96654
9331 Au 0 LAT Au 0 0.000 196.96654
9332 Au 0 LAT Au 0 0.000 196.96654
9333 Au 0 LAT Au 0 0.000 196.96654
9334 Au 0 LAT Au 0 0.000 196.96654
9335 Au 0 LAT Au 0 0.000 196.96654
9336 Au 0 LAT Au 0 0.000 196.96654
9337 Au 0 LAT Au 0 0.000 196.96654
9338 Au 0 LAT Au 0 0.000 196.96654
9339 Au 0 LAT Au 0 0.000 196.96654
9340 Au 0 LAT Au 0 0.000 196.96654
9341 Au 0 LAT Au 0 0.000 196.96654
9342 Au 0 LAT Au 0 0.000 196.96654
9343 Au 0 LAT Au 0 0.000 196.96654
9344 Au 0 LAT Au 0 0.000 196.96654
9345 Au 0 LAT Au 0 0.000 196.96654
9346 Au 0 LAT Au 0 0.000 196.96654
9347 Au 0 LAT Au 0 0.000 196.96654
9348 Au 0 LAT Au 0 0.000 196.96654
9349 Au 0 LAT Au 0 0.000 196.96654
9350 Au 0 LAT Au 0 0.000 196.96654
9351 Au 0 LAT Au 0 0.000 196.96654
9352 Au 0 LAT Au 0 0.000 196.96654
9353 Au 0 LAT Au 0 0.000 196.96654
9354 Au 0 LAT Au 0 0.000 196.96654
9355 Au 0 LAT Au 0 0.000 196.96654
9356 Au 0 LAT Au 0 0.000 196.96654
9357 Au 0 LAT Au 0 0.000 196.96654
9358 Au 0 LAT Au 0 0.000 196.96654
9359 Au 0 LAT Au 0 0.000 196.96654
9360 Au 0 LAT Au 0 0.000 196.96654
9361 Au 0 LAT Au 0 0.000 196.96654
9362 Au 0 LAT Au 0 0.000 196.96654
9363 Au 0 LAT Au 0 0.000 196.96654
9364 Au 0 LAT Au 0 0.000 196.96654
9365 Au 0 LAT Au 0 0.000 196.96654
9366 Au 0 LAT Au 0 0.000 196.96654
9367 Au 0 LAT Au 0 0.000 196.96654
9368 Au 0 LAT Au 0 0.000 196.96654
9369 Au 0 LAT Au 0 0.000 196.96654
9370 Au 0 LAT Au 0 0.000 196.96654
9371 Au 0 LAT Au 0 0.000 196.96654
9372 Au 0 LAT Au 0 0.000 196.96654
9373 Au 0 LAT Au 0 0.000 196.96654
9374 Au 0 LAT Au 0 0.000 196.96654
9375 Au 0 LAT Au 0 0.000 196.96654
9376 Au 0 LAT Au 0 0.000 196.96654
9377 Au 0 LAT Au 0 0.000 196.96654
9378 Au 0 LAT Au 0 0.000 196.96654
9379 Au 0 LAT Au 0 0.000 196.96654
9380 Au 0 LAT Au 0 0.000 196.96654
9381 Au 0 LAT Au 0 0.000 196.96654
9382 Au 0 LAT Au 0 0.000 196.96654
9383 Au 0 LAT Au 0 0.000 196.96654
9384 Au 0 LAT Au 0 0.000 196.96654
9385 Au 0 LAT Au 0 0.000 196.96654
9386 Au 0 LAT Au 0 0.000 196.96654
9387 Au 0 LAT Au 0 0.000 196.96654
9388 Au 0 LAT Au 0 0.000 196.96654
9389 Au 0 LAT Au 0 0.000 196.96654
9390 Au 0 LAT Au 0 0.000 196.96654
9391 Au 0 LAT Au 0 0.000 196.96654
9392 Au 0 LAT Au 0 0.000 196.96654
9393 Au 0 LAT Au 0 0.000 196.96654
9394 Au 0 LAT Au 0 0.000 196.96654
9395 Au 0 LAT Au 0 0.000 196.96654
9396 Au 0 LAT Au 0 0.000 196.96654
9397 Au 0 LAT Au 0 0.000 196.96654
9398 Au 0 LAT Au 0 0.000 196.96654
9399 Au 0 LAT Au 0 0.000 196.96654
9400 Au 0 LAT Au 0 0.000 196.96654
9401 Au 0 LAT Au 0 0.000 196.96654
9402 Au 0 LAT Au 0 0.000 196.96654
9403 Au 0 LAT Au 0 0.000 196.96654
9404 Au 0 LAT Au 0 0.000 196.96654
9405 Au 0 LAT Au 0 0.000 196.96654
9406 Au 0 LAT Au 0 0.000 196.96654
9407 Au 0 LAT Au 0 0.000 196.96654
9408 Au 0 LAT Au 0 0.000 196.96654
9409 Au 0 LAT Au 0 0.000 196.96654
9410 Au 0 LAT Au 0 0.000 196.96654
9411 Au 0 LAT Au 0 0.000 196.96654
9412 Au 0 LAT Au 0 0.000 196.96654
9413 Au 0 LAT Au 0 0.000 196.96654
9414 Au 0 LAT Au 0 0.000 196.96654
9415 Au 0 LAT Au 0 0.000 196.96654
9416 Au 0 LAT Au 0 0.000 196.96654
9417 Au 0 LAT Au 0 0.000 196.96654
9418 Au 0 LAT Au 0 0.000 196.96654
9419 Au 0 LAT Au 0 0.000 196.96654
9420 Au 0 LAT Au 0 0.000 196.96654
9421 Au 0 LAT Au 0 0.000 196.96654
9422 Au 0 LAT Au 0 0.000 196.96654
9423 Au 0 LAT Au 0 0.000 196.96654
9424 Au 0 LAT Au 0 0.000 196.96654
9425 Au 0 LAT Au 0 0.000 196.96654
9426 Au 0 LAT Au 0 0.000 196.96654
9427 Au 0 LAT Au 0 0.000 196.96654
9428 Au 0 LAT Au 0 0.000 196.96654
9429 Au 0 LAT Au 0 0.000 196.96654
9430 Au 0 LAT Au 0 0.000 196.96654
9431 Au 0 LAT Au 0 0.000 196.96654
9432 Au 0 LAT Au 0 0.000 196.96654
9433 Au 0 LAT Au 0 0.000 196.96654
9434 Au 0 LAT Au 0 0.000 196.96654
9435 Au 0 LAT Au 0 0.000 196.96654
9436 Au 0 LAT Au 0 0.000 196.96654
9437 Au 0 LAT Au 0 0.000 196.96654
9438 Au 0 LAT Au 0 0.000 196.96654
9439 Au 0 LAT Au 0 0.000 196.96654
9440 Au 0 LAT Au 0 0.000 196.96654
9441 Au 0 LAT Au 0 0.000 196.96654
9442 Au 0 LAT Au 0 0.000 196.96654
9443 Au 0 LAT Au 0 0.000 196.96654
9444 Au 0 LAT Au 0 0.000 196.96654
9445 Au 0 LAT Au 0 0.000 196.96654
9446 Au 0 LAT Au 0 0.000 196.96654
9447 Au 0 LAT Au 0 0.000 196.96654
9448 Au 0 LAT Au 0 0.000 196.96654
9449 Au 0 LAT Au 0 0.000 196.96654
9450 Au 0 LAT Au 0 0.000 196.96654
9451 Au 0 LAT Au 0 0.000 196.96654
9452 Au 0 LAT Au 0 0.000 196.96654
9453 Au 0 LAT Au 0 0.000 196.96654
9454 Au 0 LAT Au 0 0.000 196.96654
9455 Au 0 LAT Au 0 0.000 196.96654
9456 Au 0 LAT Au 0 0.000 196.96654
9457 Au 0 LAT Au 0 0.000 196.96654
9458 Au 0 LAT Au 0 0.000 196.96654
9459 Au 0 LAT Au 0 0.000 196.96654
9460 Au 0 LAT Au 0 0.000 196.96654
9461 Au 0 LAT Au 0 0.000 196.96654
9462 Au 0 LAT Au 0 0.000 196.96654
9463 Au 0 LAT Au 0 0.000 196.96654
9464 Au 0 LAT Au 0 0.000 196.96654
9465 Au 0 LAT Au 0 0.000 196.96654
9466 Au 0 LAT Au 0 0.000 196.96654
9467 Au 0 LAT Au 0 0.000 196.96654
9468 Au 0 LAT Au 0 0.000 196.96654
9469 Au 0 LAT Au 0 0.000 196.96654
9470 Au 0 LAT Au 0 0.000 196.96654
9471 Au 0 LAT Au 0 0.000 196.96654
9472 Au 0 LAT Au 0 0.000 196.96654
9473 Au 0 LAT Au 0 0.000 196.96654
9474 Au 0 LAT Au 0 0.000 196.96654
9475 Au 0 LAT Au 0 0.000 196.96654
9476 Au 0 LAT Au 0 0.000 196.96654
9477 Au 0 LAT Au 0 0.000 196.96654
9478 Au 0 LAT Au 0 0.000 196.96654
9479 Au 0 LAT Au 0 0.000 196.96654
9480 Au 0 LAT Au 0 0.000 196.96654
9481 Au 0 LAT Au 0 0.000 196.96654
9482 Au 0 LAT Au 0 0.000 196.96654
9483 Au 0 LAT Au 0 0.000 196.96654
9484 Au 0 LAT Au 0 0.000 196.96654
9485 Au 0 LAT Au 0 0.000 196.96654
9486 Au 0 LAT Au 0 0.000 196.96654
9487 Au 0 LAT Au 0 0.000 196.96654
9488 Au 0 LAT Au 0 0.000 196.96654
9489 Au 0 LAT Au 0 0.000 196.96654
9490 Au 0 LAT Au 0 0.000 196.96654
9491 Au 0 LAT Au 0 0.000 196.96654
9492 Au 0 LAT Au 0 0.000 196.96654
9493 Au 0 LAT Au 0 0.000 196.96654
9494 Au 0 LAT Au 0 0.000 196.96654
9495 Au 0 LAT Au 0 0.000 196.96654
9496 Au 0 LAT Au 0 0.000 196.96654
9497 Au 0 LAT Au 0 0.000 196.96654
9498 Au 0 LAT Au 0 0.000 196.96654
9499 Au 0 LAT Au 0 0.000 196.96654
9500 Au 0 LAT Au 0 0.000 196.96654
9501 Au 0 LAT Au 0 0.000 196.96654
9502 Au 0 LAT Au 0 0.000 196.96654
9503 Au 0 LAT Au 0 0.000 196.96654
9504 Au 0 LAT Au 0 0.000 196.96654
9505 Au 0 LAT Au 0 0.000 196.96654
9506 Au 0 LAT Au 0 0.000 196.96654
9507 Au 0 LAT Au 0 0.000 196.96654
9508 Au 0 LAT Au 0 0.000 196.96654
9509 Au 0 LAT Au 0 0.000 196.96654
9510 Au 0 LAT Au 0 0.000 196.96654
9511 Au 0 LAT Au 0 0.000 196.96654
9512 Au 0 LAT Au 0 0.000 196.96654
9513 Au 0 LAT Au 0 0.000 196.96654
9514 Au 0 LAT Au 0 0.000 196.96654
9515 Au 0 LAT Au 0 0.000 196.96654
9516 Au 0 LAT Au 0 0.000 196.96654
9517 Au 0 LAT Au 0 0.000 196.96654
9518 Au 0 LAT Au 0 0.000 196.96654
9519 Au 0 LAT Au 0 0.000 196.96654
9520 Au 0 LAT Au 0 0.000 196.96654
9521 Au 0 LAT Au 0 0.000 196.96654
9522 Au 0 LAT Au 0 0.000 196.96654
9523 Au 0 LAT Au 0 0.000 196.96654
9524 Au 0 LAT Au 0 0.000 196.96654
9525 Au 0 LAT Au 0 0.000 196.96654
9526 Au 0 LAT Au 0 0.000 196.96654
9527 Au 0 LAT Au 0 0.000 196.96654
9528 Au 0 LAT Au 0 0.000 196.96654
9529 Au 0 LAT Au 0 0.000 196.96654
9530 Au 0 LAT Au 0 0.000 196.96654
9531 Au 0 LAT Au 0 0.000 196.96654
9532 Au 0 LAT Au 0 0.000 196.96654
9533 Au 0 LAT Au 0 0.000 196.96654
9534 Au 0 LAT Au 0 0.000 196.96654
9535 Au 0 LAT Au 0 0.000 196.96654
9536 Au 0 LAT Au 0 0.000 196.96654
9537 Au 0 LAT Au 0 0.000 196.96654
9538 Au 0 LAT Au 0 0.000 196.96654
9539 Au 0 LAT Au 0 0.000 196.96654
9540 Au 0 LAT Au 0 0.000 196.96654
9541 Au 0 LAT Au 0 0.000 196.96654
9542 Au 0 LAT Au 0 0.000 196.96654
9543 Au 0 LAT Au 0 0.000 196.96654
9544 Au 0 LAT Au 0 0.000 196.96654
9545 Au 0 LAT Au 0 0.000 196.96654
9546 Au 0 LAT Au 0 0.000 196.96654
9547 Au 0 LAT Au 0 0.000 196.96654
9548 Au 0 LAT Au 0 0.000 196.96654
9549 Au 0 LAT Au 0 0.000 196.96654
9550 Au 0 LAT Au 0 0.000 196.96654
9551 Au 0 LAT Au 0 0.000 196.96654
9552 Au 0 LAT Au 0 0.000 196.96654
9553 Au 0 LAT Au 0 0.000 196.96654
9554 Au 0 LAT Au 0 0.000 196.96654
9555 Au 0 LAT Au 0 0.000 196.96654
9556 Au 0 LAT Au 0 0.000 196.96654
9557 Au 0 LAT Au 0 0.000 196.96654
9558 Au 0 LAT Au 0 0.000 196.96654
9559 Au 0 LAT Au 0 0.000 196.96654
9560 Au 0 LAT Au 0 0.000 196.96654
9561 Au 0 LAT Au 0 0.000 196.96654
9562 Au 0 LAT Au 0 0.000 196.96654
9563 Au 0 LAT Au 0 0.000 196.96654
9564 Au 0 LAT Au 0 0.000 196.96654
9565 Au 0 LAT Au 0 0.000 196.96654
9566 Au 0 LAT Au 0 0.000 196.96654
9567 Au 0 LAT Au 0 0.000 196.96654
9568 Au 0 LAT Au 0 0.000 196.96654
9569 Au 0 LAT Au 0 0.000 196.96654
9570 Au 0 LAT Au 0 0.000 196.96654
9571 Au 0 LAT Au 0 0.000 196.96654
9572 Au 0 LAT Au 0 0.000 196.96654
9573 Au 0 LAT Au 0 0.000 196.96654
9574 Au 0 LAT Au 0 0.000 196.96654
9575 Au 0 LAT Au 0 0.000 196.96654
9576 Au 0 LAT Au 0 0.000 196.96654
9577 Au 0 LAT Au 0 0.000 196.96654
9578 Au 0 LAT Au 0 0.000 196.96654
9579 Au 0 LAT Au 0 0.000 196.96654
9580 Au 0 LAT Au 0 0.000 196.96654
9581 Au 0 LAT Au 0 0.000 196.96654
9582 Au 0 LAT Au 0 0.000 196.96654
9583 Au 0 LAT Au 0 0.000 196.96654
9584 Au 0 LAT Au 0 0.000 196.96654
9585 Au 0 LAT Au 0 0.000 196.96654
9586 Au 0 LAT Au 0 0.000 196.96654
9587 Au 0 LAT Au 0 0.000 196.96654
9588 Au 0 LAT Au 0 0.000 196.96654
9589 Au 0 LAT Au 0 0.000 196.96654
9590 Au 0 LAT Au 0 0.000 196.96654
9591 Au 0 LAT Au 0 0.000 196.96654
9592 Au 0 LAT Au 0 0.000 196.96654
9593 Au 0 LAT Au 0 0.000 196.96654
9594 Au 0 LAT Au 0 0.000 196.96654
9595 Au 0 LAT Au 0 0.000 196.96654
9596 Au 0 LAT Au 0 0.000 196.96654
9597 Au 0 LAT Au 0 0.000 196.96654
9598 Au 0 LAT Au 0 0.000 196.96654
9599 Au 0 LAT Au 0 0.000 196.96654
9600 Au 0 LAT Au 0 0.000 196.96654
9601 Au 0 LAT Au 0 0.000 196.96654
9602 Au 0 LAT Au 0 0.000 196.96654
9603 Au 0 LAT Au 0 0.000 196.96654
9604 Au 0 LAT Au 0 0.000 196.96654
9605 Au 0 LAT Au 0 0.000 196.96654
9606 Au 0 LAT Au 0 0.000 196.96654
9607 Au 0 LAT Au 0 0.000 196.96654
9608 Au 0 LAT Au 0 0.000 196.96654
9609 Au 0 LAT Au 0 0.000 196.96654
9610 Au 0 LAT Au 0 0.000 196.96654
9611 Au 0 LAT Au 0 0.000 196.96654
9612 Au 0 LAT Au 0 0.000 196.96654
9613 Au 0 LAT Au 0 0.000 196.96654
9614 Au 0 LAT Au 0 0.000 196.96654
9615 Au 0 LAT Au 0 0.000 196.96654
9616 Au 0 LAT Au 0 0.000 196.96654
9617 Au 0 LAT Au 0 0.000 196.96654
9618 Au 0 LAT Au 0 0.000 196.96654
9619 Au 0 LAT Au 0 0.000 196.96654
9620 Au 0 LAT Au 0 0.000 196.96654
9621 Au 0 LAT Au 0 0.000 196.96654
9622 Au 0 LAT Au 0 0.000 196.96654
9623 Au 0 LAT Au 0 0.000 196.96654
9624 Au 0 LAT Au 0 0.000 196.96654
9625 Au 0 LAT Au 0 0.000 196.96654
9626 Au 0 LAT Au 0 0.000 196.96654
9627 Au 0 LAT Au 0 0.000 196.96654
9628 Au 0 LAT Au 0 0.000 196.96654
9629 Au 0 LAT Au 0 0.000 196.96654
9630 Au 0 LAT Au 0 0.000 196.96654
9631 Au 0 LAT Au 0 0.000 196.96654
9632 Au 0 LAT Au 0 0.000 196.96654
9633 Au 0 LAT Au 0 0.000 196.96654
9634 Au 0 LAT Au 0 0.000 196.96654
9635 Au 0 LAT Au 0 0.000 196.96654
9636 Au 0 LAT Au 0 0.000 196.96654
9637 Au 0 LAT Au 0 0.000 196.96654
9638 Au 0 LAT Au 0 0.000 196.96654
9639 Au 0 LAT Au 0 0.000 196.96654
9640 Au 0 LAT Au 0 0.000 196.96654
9641 Au 0 LAT Au 0 0.000 196.96654
9642 Au 0 LAT Au 0 0.000 196.96654
9643 Au 0 LAT Au 0 0.000 196.96654
9644 Au 0 LAT Au 0 0.000 196.96654
9645 Au 0 LAT Au 0 0.000 196.96654
9646 Au 0 LAT Au 0 0.000 196.96654
9647 Au 0 LAT Au 0 0.000 196.96654
9648 Au 0 LAT Au 0 0.000 196.96654
9649 Au 0 LAT Au 0 0.000 196.96654
9650 Au 0 LAT Au 0 0.000 196.96654
9651 Au 0 LAT Au 0 0.000 196.96654
9652 Au 0 LAT Au 0 0.000 196.96654
9653 Au 0 LAT Au 0 0.000 196.96654
9654 Au 0 LAT Au 0 0.000 196.96654
9655 Au 0 LAT Au 0 0.000 196.96654
9656 Au 0 LAT Au 0 0.000 196.96654
9657 Au 0 LAT Au 0 0.000 196.96654
9658 Au 0 LAT Au 0 0.000 196.96654
9659 Au 0 LAT Au 0 0.000 196.96654
9660 Au 0 LAT Au 0 0.000 196.96654
9661 Au 0 LAT Au 0 0.000 196.96654
9662 Au 0 LAT Au 0 0.000 196.96654
9663 Au 0 LAT Au 0 0.000 196.96654
9664 Au 0 LAT Au 0 0.000 196.96654
9665 Au 0 LAT Au 0 0.000 196.96654
9666 Au 0 LAT Au 0 0.000 196.96654
9667 Au 0 LAT Au 0 0.000 196.96654
9668 Au 0 LAT Au 0 0.000 196.96654
9669 Au 0 LAT Au 0 0.000 196.96654
9670 Au 0 LAT Au 0 0.000 196.96654
9671 Au 0 LAT Au 0 0.000 196.96654
9672 Au 0 LAT Au 0 0.000 196.96654
9673 Au 0 LAT Au 0 0.000 196.96654
9674 Au 0 LAT Au 0 0.000 196.96654
9675 Au 0 LAT Au 0 0.000 196.96654
9676 Au 0 LAT Au 0 0.000 196.96654
9677 Au 0 LAT Au 0 0.000 196.96654
9678 Au 0 LAT Au 0 0.000 196.96654
9679 Au 0 LAT Au 0 0.000 196.96654
9680 Au 0 LAT Au 0 0.000 196.96654
9681 Au 0 LAT Au 0 0.000 196.96654
9682 Au 0 LAT Au 0 0.000 196.96654
9683 Au 0 LAT Au 0 0.000 196.96654
9684 Au 0 LAT Au 0 0.000 196.96654
9685 Au 0 LAT Au 0 0.000 196.96654
9686 Au 0 LAT Au 0 0.000 196.96654
9687 Au 0 LAT Au 0 0.000 196.96654
9688 Au 0 LAT Au 0 0.000 196.96654
9689 Au 0 LAT Au 0 0.000 196.96654
9690 Au 0 LAT Au 0 0.000 196.96654
9691 Au 0 LAT Au 0 0.000 196.96654
9692 Au 0 LAT Au 0 0.000 196.96654
9693 Au 0 LAT Au 0 0.000 196.96654
9694 Au 0 LAT Au 0 0.000 196.96654
9695 Au 0 LAT Au 0 0.000 196.96654
9696 Au 0 LAT Au 0 0.000 196.96654
9697 Au 0 LAT Au 0 0.000 196.96654
9698 Au 0 LAT Au 0 0.000 196.96654
9699 Au 0 LAT Au 0 0.000 196.96654
9700 Au 0 LAT Au 0 0.000 196.96654
9701 Au 0 LAT Au 0 0.000 196.96654
9702 Au 0 LAT Au 0 0.000 196.96654
9703 Au 0 LAT Au 0 0.000 196.96654
9704 Au 0 LAT Au 0 0.000 196.96654
9705 Au 0 LAT Au 0 0.000 196.96654
9706 Au 0 LAT Au 0 0.000 196.96654
9707 Au 0 LAT Au 0 0.000 196.96654
9708 Au 0 LAT Au 0 0.000 196.96654
9709 Au 0 LAT Au 0 0.000 196.96654
9710 Au 0 LAT Au 0 0.000 196.96654
9711 Au 0 LAT Au 0 0.000 196.96654
9712 Au 0 LAT Au 0 0.000 196.96654
9713 Au 0 LAT Au 0 0.000 196.96654
9714 Au 0 LAT Au 0 0.000 196.96654
9715 Au 0 LAT Au 0 0.000 196.96654
9716 Au 0 LAT Au 0 0.000 196.96654
9717 Au 0 LAT Au 0 0.000 196.96654
9718 Au 0 LAT Au 0 0.000 196.96654
9719 Au 0 LAT Au 0 0.000 196.96654
9720 Au 0 LAT Au 0 0.000 196.96654
9721 Au 0 LAT Au 0 0.000 196.96654
9722 Au 0 LAT Au 0 0.000 196.96654
9723 Au 0 LAT Au 0 0.000 196.96654
9724 Au 0 LAT Au 0 0.000 196.96654
9725 Au 0 LAT Au 0 0.000 196.96654
9726 Au 0 LAT Au 0 0.000 196.96654
9727 Au 0 LAT Au 0 0.000 196.96654
9728 Au 0 LAT Au 0 0.000 196.96654
9729 Au 0 LAT Au 0 0.000 196.96654
9730 Au 0 LAT Au 0 0.000 196.96654
9731 Au 0 LAT Au 0 0.000 196.96654
9732 Au 0 LAT Au 0 0.000 196.96654
9733 Au 0 LAT Au 0 0.000 196.96654
9734 Au 0 LAT Au 0 0.000 196.96654
9735 Au 0 LAT Au 0 0.000 196.96654
9736 Au 0 LAT Au 0 0.000 196.96654
9737 Au 0 LAT Au 0 0.000 196.96654
9738 Au 0 LAT Au 0 0.000 196.96654
9739 Au 0 LAT Au 0 0.000 196.96654
9740 Au 0 LAT Au 0 0.000 196.96654
9741 Au 0 LAT Au 0 0.000 196.96654
9742 Au 0 LAT Au 0 0.000 196.96654
9743 Au 0 LAT Au 0 0.000 196.96654
9744 Au 0 LAT Au 0 0.000 196.96654
9745 Au 0 LAT Au 0 0.000 196.96654
9746 Au 0 LAT Au 0 0.000 196.96654
9747 Au 0 LAT Au 0 0.000 196.96654
9748 Au 0 LAT Au 0 0.000 196.96654
9749 Au 0 LAT Au 0 0.000 196.96654
9750 Au 0 LAT Au 0 0.000 196.96654
9751 Au 0 LAT Au 0 0.000 196.96654
9752 Au 0 LAT Au 0 0.000 196.96654
9753 Au 0 LAT Au 0 0.000 196.96654
9754 Au 0 LAT Au 0 0.000 196.96654
9755 Au 0 LAT Au 0 0.000 196.96654
9756 Au 0 LAT Au 0 0.000 196.96654
9757 Au 0 LAT Au 0 0.000 196.96654
9758 Au 0 LAT Au 0 0.000 196.96654
9759 Au 0 LAT Au 0 0.000 196.96654
9760 Au 0 LAT Au 0 0.000 196.96654
9761 Au 0 LAT Au 0 0.000 196.96654
9762 Au 0 LAT Au 0 0.000 196.96654
9763 Au 0 LAT Au 0 0.000 196.96654
9764 Au 0 LAT Au 0 0.000 196.96654
9765 Au 0 LAT Au 0 0.000 196.96654
9766 Au 0 LAT Au 0 0.000 196.96654
9767 Au 0 LAT Au 0 0.000 196.96654
9768 Au 0 LAT Au 0 0.000 196.96654
9769 Au 0 LAT Au 0 0.000 196.96654
9770 Au 0 LAT Au 0 0.000 196.96654
9771 Au 0 LAT Au 0 0.000 196.96654
9772 Au 0 LAT Au 0 0.000 196.96654
9773 Au 0 LAT Au 0 0.000 196.96654
9774 Au 0 LAT Au 0 0.000 196.96654
9775 Au 0 LAT Au 0 0.000 196.96654
9776 Au 0 LAT Au 0 0.000 196.96654
9777 Au 0 LAT Au 0 0.000 196.96654
9778 Au 0 LAT Au 0 0.000 196.96654
9779 Au 0 LAT Au 0 0.000 196.96654
9780 Au 0 LAT Au 0 0.000 196.96654
9781 Au 0 LAT Au 0 0.000 196.96654
9782 Au 0 LAT Au 0 0.000 196.96654
9783 Au 0 LAT Au 0 0.000 196.96654
9784 Au 0 LAT Au 0 0.000 196.96654
9785 Au 0 LAT Au 0 0.000 196.96654
9786 Au 0 LAT Au 0 0.000 196.96654
9787 Au 0 LAT Au 0 0.000 196.96654
9788 Au 0 LAT Au 0 0.000 196.96654
9789 Au 0 LAT Au 0 0.000 196.96654
9790 Au 0 LAT Au 0 0.000 196.96654
9791 Au 0 LAT Au 0 0.000 196.96654
9792 Au 0 LAT Au 0 0.000 196.96654
9793 Au 0 LAT Au 0 0.000 196.96654
9794 Au 0 LAT Au 0 0.000 196.96654
9795 Au 0 LAT Au 0 0.000 196.96654
9796 Au 0 LAT Au 0 0.000 196.96654
9797 Au 0 LAT Au 0 0.000 196.96654
9798 Au 0 LAT Au 0 0.000 196.96654
9799 Au 0 LAT Au 0 0.000 196.96654
9800 Au 0 LAT Au 0 0.000 196.96654
9801 Au 0 LAT Au 0 0.000 196.96654
9802 Au 0 LAT Au 0 0.000 196.96654
9803 Au 0 LAT Au 0 0.000 196.96654
9804 Au 0 LAT Au 0 0.000 196.96654
9805 Au 0 LAT Au 0 0.000 196.96654
9806 Au 0 LAT Au 0 0.000 196.96654
9807 Au 0 LAT Au 0 0.000 196.96654
9808 Au 0 LAT Au 0 0.000 196.96654
9809 Au 0 LAT Au 0 0.000 196.96654
9810 Au 0 LAT Au 0 0.000 196.96654
9811 Au 0 LAT Au 0 0.000 196.96654
9812 Au 0 LAT Au 0 0.000 196.96654
9813 Au 0 LAT Au 0 0.000 196.96654
9814 Au 0 LAT Au 0 0.000 196.96654
9815 Au 0 LAT Au 0 0.000 196.96654
9816 Au 0 LAT Au 0 0.000 196.96654
9817 Au 0 LAT Au 0 0.000 196.96654
9818 Au 0 LAT Au 0 0.000 196.96654
9819 Au 0 LAT Au 0 0.000 196.96654
9820 Au 0 LAT Au 0 0.000 196.96654
9821 Au 0 LAT Au 0 0.000 196.96654
9822 Au 0 LAT Au 0 0.000 196.96654
9823 Au 0 LAT Au 0 0.000 196.96654
9824 Au 0 LAT Au 0 0.000 196.96654
9825 Au 0 LAT Au 0 0.000 196.96654
9826 Au 0 LAT Au 0 0.000 196.96654
9827 Au 0 LAT Au 0 0.000 196.96654
9828 Au 0 LAT Au 0 0.000 196.96654
9829 Au 0 LAT Au 0 0.000 196.96654
9830 Au 0 LAT Au 0 0.000 196.96654
9831 Au 0 LAT Au 0 0.000 196.96654
9832 Au 0 LAT Au 0 0.000 196.96654
9833 Au 0 LAT Au 0 0.000 196.96654
9834 Au 0 LAT Au 0 0.000 196.96654
9835 Au 0 LAT Au 0 0.000 196.96654
9836 Au 0 LAT Au 0 0.000 196.96654
9837 Au 0 LAT Au 0 0.000 196.96654
9838 Au 0 LAT Au 0 0.000 196.96654
9839 Au 0 LAT Au 0 0.000 196.96654
9840 Au 0 LAT Au 0 0.000 196.96654
9841 Au 0 LAT Au 0 0.000 196.96654
9842 Au 0 LAT Au 0 0.000 196.96654
9843 Au 0 LAT Au 0 0.000 196.96654
9844 Au 0 LAT Au 0 0.000 196.96654
9845 Au 0 LAT Au 0 0.000 196.96654
9846 Au 0 LAT Au 0 0.000 196.96654
9847 Au 0 LAT Au 0 0.000 196.96654
9848 Au 0 LAT Au 0 0.000 196.96654
9849 Au 0 LAT Au 0 0.000 196.96654
9850 Au 0 LAT Au 0 0.000 196.96654
9851 Au 0 LAT Au 0 0.000 196.96654
9852 Au 0 LAT Au 0 0.000 196.96654
9853 Au 0 LAT Au 0 0.000 196.96654
9854 Au 0 LAT Au 0 0.000 196.96654
9855 Au 0 LAT Au 0 0.000 196.96654
9856 Au 0 LAT Au 0 0.000 196.96654
9857 Au 0 LAT Au 0 0.000 196.96654
9858 Au 0 LAT Au 0 0.000 196.96654
9859 Au 0 LAT Au 0 0.000 196.96654
9860 Au 0 LAT Au 0 0.000 196.96654
9861 Au 0 LAT Au 0 0.000 196.96654
9862 Au 0 LAT Au 0 0.000 196.96654
9863 Au 0 LAT Au 0 0.000 196.96654
9864 Au 0 LAT Au 0 0.000 196.96654
9865 Au 0 LAT Au 0 0.000 196.96654
9866 Au 0 LAT Au 0 0.000 196.96654
9867 Au 0 LAT Au 0 0.000 196.96654
9868 Au 0 LAT Au 0 0.000 196.96654
9869 Au 0 LAT Au 0 0.000 196.96654
9870 Au 0 LAT Au 0 0.000 196.96654
9871 Au 0 LAT Au 0 0.000 196.96654
9872 Au 0 LAT Au 0 0.000 196.96654
9873 Au 0 LAT Au 0 0.000 196.96654
9874 Au 0 LAT Au 0 0.000 196.96654
9875 Au 0 LAT Au 0 0.000 196.96654
9876 Au 0 LAT Au 0 0.000 196.96654
9877 Au 0 LAT Au 0 0.000 196.96654
9878 Au 0 LAT Au 0 0.000 196.96654
9879 Au 0 LAT Au 0 0.000 196.96654
9880 Au 0 LAT Au 0 0.000 196.96654
9881 Au 0 LAT Au 0 0.000 196.96654
9882 Au 0 LAT Au 0 0.000 196.96654
9883 Au 0 LAT Au 0 0.000 196.96654
9884 Au 0 LAT Au 0 0.000 196.96654
9885 Au 0 LAT Au 0 0.000 196.96654
9886 Au 0 LAT Au 0 0.000 196.96654
9887 Au 0 LAT Au 0 0.000 196.96654
9888 Au 0 LAT Au 0 0.000 196.96654
9889 Au 0 LAT Au 0 0.000 196.96654
9890 Au 0 LAT Au 0 0.000 196.96654
9891 Au 0 LAT Au 0 0.000 196.96654
9892 Au 0 LAT Au 0 0.000 196.96654
9893 Au 0 LAT Au 0 0.000 196.96654
9894 Au 0 LAT Au 0 0.000 196.96654
9895 Au 0 LAT Au 0 0.000 196.96654
9896 Au 0 LAT Au 0 0.000 196.96654
9897 Au 0 LAT Au 0 0.000 196.96654
9898 Au 0 LAT Au 0 0.000 196.96654
9899 Au 0 LAT Au 0 0.000 196.96654
9900 Au 0 LAT Au 0 0.000 196.96654
9901 Au 0 LAT Au 0 0.000 196.96654
9902 Au 0 LAT Au 0 0.000 196.96654
9903 Au 0 LAT Au 0 0.000 196.96654
9904 Au 0 LAT Au 0 0.000 196.96654
9905 Au 0 LAT Au 0 0.000 196.96654
9906 Au 0 LAT Au 0 0.000 196.96654
9907 Au 0 LAT Au 0 0.000 196.96654
9908 Au 0 LAT Au 0 0.000 196.96654
9909 Au 0 LAT Au 0 0.000 196.96654
9910 Au 0 LAT Au 0 0.000 196.96654
9911 Au 0 LAT Au 0 0.000 196.96654
9912 Au 0 LAT Au 0 0.000 196.96654
9913 Au 0 LAT Au 0 0.000 196.96654
9914 Au 0 LAT Au 0 0.000 196.96654
9915 Au 0 LAT Au 0 0.000 196.96654
9916 Au 0 LAT Au 0 0.000 196.96654
9917 Au 0 LAT Au 0 0.000 196.96654
9918 Au 0 LAT Au 0 0.000 196.96654
9919 Au 0 LAT Au 0 0.000 196.96654
9920 Au 0 LAT Au 0 0.000 196.96654
9921 Au 0 LAT Au 0 0.000 196.96654
9922 Au 0 LAT Au 0 0.000 196.96654
9923 Au 0 LAT Au 0 0.000 196.96654
9924 Au 0 LAT Au 0 0.000 196.96654
9925 Au 0 LAT Au 0 0.000 196.96654
9926 Au 0 LAT Au 0 0.000 196.96654
9927 Au 0 LAT Au 0 0.000 196.96654
9928 Au 0 LAT Au 0 0.000 196.96654
9929 Au 0 LAT Au 0 0.000 196.96654
9930 Au 0 LAT Au 0 0.000 196.96654
9931 Au 0 LAT Au 0 0.000 196.96654
9932 Au 0 LAT Au 0 0.000 196.96654
9933 Au 0 LAT Au 0 0.000 196.96654
9934 Au 0 LAT Au 0 0.000 196.96654
9935 Au 0 LAT Au 0 0.000 196.96654
9936 Au 0 LAT Au 0 0.000 196.96654
9937 Au 0 LAT Au 0 0.000 196.96654
9938 Au 0 LAT Au 0 0.000 196.96654
9939 Au 0 LAT Au 0 0.000 196.96654
9940 Au 0 LAT Au 0 0.000 196.96654
9941 Au 0 LAT Au 0 0.000 196.96654
9942 Au 0 LAT Au 0 0.000 196.96654
9943 Au 0 LAT Au 0 0.000 196.96654
9944 Au 0 LAT Au 0 0.000 196.96654
9945 Au 0 LAT Au 0 0.000 196.96654
9946 Au 0 LAT Au 0 0.000 196.96654
9947 Au 0 LAT Au 0 0.000 196.96654
9948 Au 0 LAT Au 0 0.000 196.96654
9949 Au 0 LAT Au 0 0.000 196.96654
9950 Au 0 LAT Au 0 0.000 196.96654
9951 Au 0 LAT Au 0 0.000 196.96654
9952 Au 0 LAT Au 0 0.000 196.96654
9953 Au 0 LAT Au 0 0.000 196.96654
9954 Au 0 LAT Au 0 0.000 196.96654
9955 Au 0 LAT Au 0 0.000 196.96654
9956 Au 0 LAT Au 0 0.000 196.96654
9957 Au 0 LAT Au 0 0.000 196.96654
9958 Au 0 LAT Au 0 0.000 196.96654
9959 Au 0 LAT Au 0 0.000 196.96654
9960 Au 0 LAT Au 0 0.000 196.96654
9961 Au 0 LAT Au 0 0.000 196.96654
9962 Au 0 LAT Au 0 0.000 196.96654
9963 Au 0 LAT Au 0 0.000 196.96654
9964 Au 0 LAT Au 0 0.000 196.96654
9965 Au 0 LAT Au 0 0.000 196.96654
9966 Au 0 LAT Au 0 0.000 196.96654
9967 Au 0 LAT Au 0 0.000 196.96654
9968 Au 0 LAT Au 0 0.000 196.96654
9969 Au 0 LAT Au 0 0.000 196.96654
9970 Au 0 LAT Au 0 0.000 196.96654
9971 Au 0 LAT Au 0 0.000 196.96654
9972 Au 0 LAT Au 0 0.000 196.96654
9973 Au 0 LAT Au 0 0.000 196.96654
9974 Au 0 LAT Au 0 0.000 196.96654
9975 Au 0 LAT Au 0 0.000 196.96654
9976 Au 0 LAT Au 0 0.000 196.96654
9977 Au 0 LAT Au 0 0.000 196.96654
9978 Au 0 LAT Au 0 0.000 196.96654
9979 Au 0 LAT Au 0 0.000 196.96654
9980 Au 0 LAT Au 0 0.000 196.96654
9981 Au 0 LAT Au 0 0.000 196.96654
9982 Au 0 LAT Au 0 0.000 196.96654
9983 Au 0 LAT Au 0 0.000 196.96654
9984 Au 0 LAT Au 0 0.000 196.96654
9985 Au 0 LAT Au 0 0.000 196.96654
9986 Au 0 LAT Au 0 0.000 196.96654
9987 Au 0 LAT Au 0 0.000 196.96654
9988 Au 0 LAT Au 0 0.000 196.96654
9989 Au 0 LAT Au 0 0.000 196.96654
9990 Au 0 LAT Au 0 0.000 196.96654
9991 Au 0 LAT Au 0 0.000 196.96654
9992 Au 0 LAT Au 0 0.000 196.96654
9993 Au 0 LAT Au 0 0.000 196.96654
9994 Au 0 LAT Au 0 0.000 196.96654
9995 Au 0 LAT Au 0 0.000 196.96654
9996 Au 0 LAT Au 0 0.000 196.96654
9997 Au 0 LAT Au 0 0.000 196.96654
9998 Au 0 LAT Au 0 0.000 196.96654
9999 Au 0 LAT Au 0 0.000 196.96654
10000 Au 0 LAT Au 0 0.000 196.96654
10001 Au 0 LAT Au 0 0.000 196.96654
10002 Au 0 LAT Au 0 0.000 196.96654
10003 Au 0 LAT Au 0 0.000 196.96654
10004 Au 0 LAT Au 0 0.000 196.96654
10005 Au 0 LAT Au 0 0.000 196.96654
10006 Au 0 LAT Au 0 0.000 196.96654
10007 Au 0 LAT Au 0 0.000 196.96654
10008 Au 0 LAT Au 0 0.000 196.96654
10009 Au 0 LAT Au 0 0.000 196.96654
10010 Au 0 LAT Au 0 0.000 196.96654
10011 Au 0 LAT Au 0 0.000 196.96654
10012 Au 0 LAT Au 0 0.000 196.96654
10013 Au 0 LAT Au 0 0.000 196.96654
10014 Au 0 LAT Au 0 0.000 196.96654
10015 Au 0 LAT Au 0 0.000 196.96654
10016 Au 0 LAT Au 0 0.000 196.96654
10017 Au 0 LAT Au 0 0.000 196.96654
10018 Au 0 LAT Au 0 0.000 196.96654
10019 Au 0 LAT Au 0 0.000 196.96654
10020 Au 0 LAT Au 0 0.000 196.96654
10021 Au 0 LAT Au 0 0.000 196.96654
10022 Au 0 LAT Au 0 0.000 196.96654
10023 Au 0 LAT Au 0 0.000 196.96654
10024 Au 0 LAT Au 0 0.000 196.96654
10025 Au 0 LAT Au 0 0.000 196.96654
10026 Au 0 LAT Au 0 0.000 196.96654
10027 Au 0 LAT Au 0 0.000 196.96654
10028 Au 0 LAT Au 0 0.000 196.96654
10029 Au 0 LAT Au 0 0.000 196.96654
10030 Au 0 LAT Au 0 0.000 196.96654
10031 Au 0 LAT Au 0 0.000 196.96654
10032 Au 0 LAT Au 0 0.000 196.96654
10033 Au 0 LAT Au 0 0.000 196.96654
10034 Au 0 LAT Au 0 0.000 196.96654
10035 Au 0 LAT Au 0 0.000 196.96654
10036 Au 0 LAT Au 0 0.000 196.96654
10037 Au 0 LAT Au 0 0.000 196.96654
10038 Au 0 LAT Au 0 0.000 196.96654
10039 Au 0 LAT Au 0 0.000 196.96654
10040 Au 0 LAT Au 0 0.000 196.96654
10041 Au 0 LAT Au 0 0.000 196.96654
10042 Au 0 LAT Au 0 0.000 196.96654
10043 Au 0 LAT Au 0 0.000 196.96654
10044 Au 0 LAT Au 0 0.000 196.96654
10045 Au 0 LAT Au 0 0.000 196.96654
10046 Au 0 LAT Au 0 0.000 196.96654
10047 Au 0 LAT Au 0 0.000 196.96654
10048 Au 0 LAT Au 0 0.000 196.96654
10049 Au 0 LAT Au 0 0.000 196.96654
10050 Au 0 LAT Au 0 0.000 196.96654
10051 Au 0 LAT Au 0 0.000 196.96654
10052 Au 0 LAT Au 0 0.000 196.96654
10053 Au 0 LAT Au 0 0.000 196.96654
10054 Au 0 LAT Au 0 0.000 196.96654
10055 Au 0 LAT Au 0 0.000 196.96654
10056 Au 0 LAT Au 0 0.000 196.96654
10057 Au 0 LAT Au 0 0.000 196.96654
10058 Au 0 LAT Au 0 0.000 196.96654
10059 Au 0 LAT Au 0 0.000 196.96654
10060 Au 0 LAT Au 0 0.000 196.96654
10061 Au 0 LAT Au 0 0.000 196.96654
10062 Au 0 LAT Au 0 0.000 196.96654
10063 Au 0 LAT Au 0 0.000 196.96654
10064 Au 0 LAT Au 0 0.000 196.96654
10065 Au 0 LAT Au 0 0.000 196.96654
10066 Au 0 LAT Au 0 0.000 196.96654
10067 Au 0 LAT Au 0 0.000 196.96654
10068 Au 0 LAT Au 0 0.000 196.96654
10069 Au 0 LAT Au 0 0.000 196.96654
10070 Au 0 LAT Au 0 0.000 196.96654
10071 Au 0 LAT Au 0 0.000 196.96654
10072 Au 0 LAT Au 0 0.000 196.96654
10073 Au 0 LAT Au 0 0.000 196.96654
10074 Au 0 LAT Au 0 0.000 196.96654
10075 Au 0 LAT Au 0 0.000 196.96654
10076 Au 0 LAT Au 0 0.000 196.96654
10077 Au 0 LAT Au 0 0.000 196.96654
10078 Au 0 LAT Au 0 0.000 196.96654
10079 Au 0 LAT Au 0 0.000 196.96654
10080 Au 0 LAT Au 0 0.000 196.96654
10081 Au 0 LAT Au 0 0.000 196.96654
10082 Au 0 LAT Au 0 0.000 196.96654
10083 Au 0 LAT Au 0 0.000 196.96654
10084 Au 0 LAT Au 0 0.000 196.96654
10085 Au 0 LAT Au 0 0.000 196.96654
10086 Au 0 LAT Au 0 0.000 196.96654
10087 Au 0 LAT Au 0 0.000 196.96654
10088 Au 0 LAT Au 0 0.000 196.96654
10089 Au 0 LAT Au 0 0.000 196.96654
10090 Au 0 LAT Au 0 0.000 196.96654
10091 Au 0 LAT Au 0 0.000 196.96654
10092 Au 0 LAT Au 0 0.000 196.96654
10093 Au 0 LAT Au 0 0.000 196.96654
10094 Au 0 LAT Au 0 0.000 196.96654
10095 Au 0 LAT Au 0 0.000 196.96654
10096 Au 0 LAT Au 0 0.000 196.96654
10097 Au 0 LAT Au 0 0.000 196.96654
10098 Au 0 LAT Au 0 0.000 196.96654
10099 Au 0 LAT Au 0 0.000 196.96654
10100 Au 0 LAT Au 0 0.000 196.96654
10101 Au 0 LAT Au 0 0.000 196.96654
10102 Au 0 LAT Au 0 0.000 196.96654
10103 Au 0 LAT Au 0 0.000 196.96654
10104 Au 0 LAT Au 0 0.000 196.96654
10105 Au 0 LAT Au 0 0.000 196.96654
10106 Au 0 LAT Au 0 0.000 196.96654
10107 Au 0 LAT Au 0 0.000 196.96654
10108 Au 0 LAT Au 0 0.000 196.96654
10109 Au 0 LAT Au 0 0.000 196.96654
10110 Au 0 LAT Au 0 0.000 196.96654
10111 Au 0 LAT Au 0 0.000 196.96654
10112 Au 0 LAT Au 0 0.000 196.96654
10113 Au 0 LAT Au 0 0.000 196.96654
10114 Au 0 LAT Au 0 0.000 196.96654
10115 Au 0 LAT Au 0 0.000 196.96654
10116 Au 0 LAT Au 0 0.000 196.96654
10117 Au 0 LAT Au 0 0.000 196.96654
10118 Au 0 LAT Au 0 0.000 196.96654
10119 Au 0 LAT Au 0 0.000 196.96654
10120 Au 0 LAT Au 0 0.000 196.96654
10121 Au 0 LAT Au 0 0.000 196.96654
10122 Au 0 LAT Au 0 0.000 196.96654
10123 Au 0 LAT Au 0 0.000 196.96654
10124 Au 0 LAT Au 0 0.000 196.96654
10125 Au 0 LAT Au 0 0.000 196.96654
10126 Au 0 LAT Au 0 0.000 196.96654
10127 Au 0 LAT Au 0 0.000 196.96654
10128 Au 0 LAT Au 0 0.000 196.96654
10129 Au 0 LAT Au 0 0.000 196.96654
10130 Au 0 LAT Au 0 0.000 196.96654
10131 Au 0 LAT Au 0 0.000 196.96654
10132 Au 0 LAT Au 0 0.000 196.96654
10133 Au 0 LAT Au 0 0.000 196.96654
10134 Au 0 LAT Au 0 0.000 196.96654
10135 Au 0 LAT Au 0 0.000 196.96654
10136 Au 0 LAT Au 0 0.000 196.96654
10137 Au 0 LAT Au 0 0.000 196.96654
10138 Au 0 LAT Au 0 0.000 196.96654
10139 Au 0 LAT Au 0 0.000 196.96654
10140 Au 0 LAT Au 0 0.000 196.96654
10141 Au 0 LAT Au 0 0.000 196.96654
10142 Au 0 LAT Au 0 0.000 196.96654
10143 Au 0 LAT Au 0 0.000 196.96654
10144 Au 0 LAT Au 0 0.000 196.96654
10145 Au 0 LAT Au 0 0.000 196.96654
10146 Au 0 LAT Au 0 0.000 196.96654
10147 Au 0 LAT Au 0 0.000 196.96654
10148 Au 0 LAT Au 0 0.000 196.96654
10149 Au 0 LAT Au 0 0.000 196.96654
10150 Au 0 LAT Au 0 0.000 196.96654
10151 Au 0 LAT Au 0 0.000 196.96654
10152 Au 0 LAT Au 0 0.000 196.96654
10153 Au 0 LAT Au 0 0.000 196.96654
10154 Au 0 LAT Au 0 0.000 196.96654
10155 Au 0 LAT Au 0 0.000 196.96654
10156 Au 0 LAT Au 0 0.000 196.96654
10157 Au 0 LAT Au 0 0.000 196.96654
10158 Au 0 LAT Au 0 0.000 196.96654
10159 Au 0 LAT Au 0 0.000 196.96654
10160 Au 0 LAT Au 0 0.000 196.96654
10161 Au 0 LAT Au 0 0.000 196.96654
10162 Au 0 LAT Au 0 0.000 196.96654
10163 Au 0 LAT Au 0 0.000 196.96654
10164 Au 0 LAT Au 0 0.000 196.96654
10165 Au 0 LAT Au 0 0.000 196.96654
10166 Au 0 LAT Au 0 0.000 196.96654
10167 Au 0 LAT Au 0 0.000 196.96654
10168 Au 0 LAT Au 0 0.000 196.96654
10169 Au 0 LAT Au 0 0.000 196.96654
10170 Au 0 LAT Au 0 0.000 196.96654
10171 Au 0 LAT Au 0 0.000 196.96654
10172 Au 0 LAT Au 0 0.000 196.96654
10173 Au 0 LAT Au 0 0.000 196.96654
10174 Au 0 LAT Au 0 0.000 196.96654
10175 Au 0 LAT Au 0 0.000 196.96654
10176 Au 0 LAT Au 0 0.000 196.96654
10177 Au 0 LAT Au 0 0.000 196.96654
10178 Au 0 LAT Au 0 0.000 196.96654
10179 Au 0 LAT Au 0 0.000 196.96654
10180 Au 0 LAT Au 0 0.000 196.96654
10181 Au 0 LAT Au 0 0.000 196.96654
10182 Au 0 LAT Au 0 0.000 196.96654
10183 Au 0 LAT Au 0 0.000 196.96654
10184 Au 0 LAT Au 0 0.000 196.96654
10185 Au 0 LAT Au 0 0.000 196.96654
10186 Au 0 LAT Au 0 0.000 196.96654
10187 Au 0 LAT Au 0 0.000 196.96654
10188 Au 0 LAT Au 0 0.000 196.96654
10189 Au 0 LAT Au 0 0.000 196.96654
10190 Au 0 LAT Au 0 0.000 196.96654
10191 Au 0 LAT Au 0 0.000 196.96654
10192 Au 0 LAT Au 0 0.000 196.96654
10193 Au 0 LAT Au 0 0.000 196.96654
10194 Au 0 LAT Au 0 0.000 196.96654
10195 Au 0 LAT Au 0 0.000 196.96654
10196 Au 0 LAT Au 0 0.000 196.96654
10197 Au 0 LAT Au 0 0.000 196.96654
10198 Au 0 LAT Au 0 0.000 196.96654
10199 Au 0 LAT Au 0 0.000 196.96654
10200 Au 0 LAT Au 0 0.000 196.96654
10201 Au 0 LAT Au 0 0.000 196.96654
10202 Au 0 LAT Au 0 0.000 196.96654
10203 Au 0 LAT Au 0 0.000 196.96654
10204 Au 0 LAT Au 0 0.000 196.96654
10205 Au 0 LAT Au 0 0.000 196.96654
10206 Au 0 LAT Au 0 0.000 196.96654
10207 Au 0 LAT Au 0 0.000 196.96654
10208 Au 0 LAT Au 0 0.000 196.96654
10209 Au 0 LAT Au 0 0.000 196.96654
10210 Au 0 LAT Au 0 0.000 196.96654
10211 Au 0 LAT Au 0 0.000 196.96654
10212 Au 0 LAT Au 0 0.000 196.96654
10213 Au 0 LAT Au 0 0.000 196.96654
10214 Au 0 LAT Au 0 0.000 196.96654
10215 Au 0 LAT Au 0 0.000 196.96654
10216 Au 0 LAT Au 0 0.000 196.96654
10217 Au 0 LAT Au 0 0.000 196.96654
10218 Au 0 LAT Au 0 0.000 196.96654
10219 Au 0 LAT Au 0 0.000 196.96654
10220 Au 0 LAT Au 0 0.000 196.96654
10221 Au 0 LAT Au 0 0.000 196.96654
10222 Au 0 LAT Au 0 0.000 196.96654
10223 Au 0 LAT Au 0 0.000 196.96654
10224 Au 0 LAT Au 0 0.000 196.96654
10225 Au 0 LAT Au 0 0.000 196.96654
10226 Au 0 LAT Au 0 0.000 196.96654
10227 Au 0 LAT Au 0 0.000 196.96654
10228 Au 0 LAT Au 0 0.000 196.96654
10229 Au 0 LAT Au 0 0.000 196.96654
10230 Au 0 LAT Au 0 0.000 196.96654
10231 Au 0 LAT Au 0 0.000 196.96654
10232 Au 0 LAT Au 0 0.000 196.96654
10233 Au 0 LAT Au 0 0.000 196.96654
10234 Au 0 LAT Au 0 0.000 196.96654
10235 Au 0 LAT Au 0 0.000 196.96654
10236 Au 0 LAT Au 0 0.000 196.96654
10237 Au 0 LAT Au 0 0.000 196.96654
10238 Au 0 LAT Au 0 0.000 196.96654
10239 Au 0 LAT Au 0 0.000 196.96654
10240 Au 0 LAT Au 0 0.000 196.96654
10241 Au 0 LAT Au 0 0.000 196.96654
10242 Au 0 LAT Au 0 0.000 196.96654
10243 Au 0 LAT Au 0 0.000 196.96654
10244 Au 0 LAT Au 0 0.000 196.96654
10245 Au 0 LAT Au 0 0.000 196.96654
10246 Au 0 LAT Au 0 0.000 196.96654
10247 Au 0 LAT Au 0 0.000 196.96654
10248 Au 0 LAT Au 0 0.000 196.96654
10249 Au 0 LAT Au 0 0.000 196.96654
10250 Au 0 LAT Au 0 0.000 196.96654
10251 Au 0 LAT Au 0 0.000 196.96654
10252 Au 0 LAT Au 0 0.000 196.96654
10253 Au 0 LAT Au 0 0.000 196.96654
10254 Au 0 LAT Au 0 0.000 196.96654
10255 Au 0 LAT Au 0 0.000 196.96654
10256 Au 0 LAT Au 0 0.000 196.96654
10257 Au 0 LAT Au 0 0.000 196.96654
10258 Au 0 LAT Au 0 0.000 196.96654
10259 Au 0 LAT Au 0 0.000 196.96654
10260 Au 0 LAT Au 0 0.000 196.96654
10261 Au 0 LAT Au 0 0.000 196.96654
10262 Au 0 LAT Au 0 0.000 196.96654
10263 Au 0 LAT Au 0 0.000 196.96654
10264 Au 0 LAT Au 0 0.000 196.96654
10265 Au 0 LAT Au 0 0.000 196.96654
10266 Au 0 LAT Au 0 0.000 196.96654
10267 Au 0 LAT Au 0 0.000 196.96654
10268 Au 0 LAT Au 0 0.000 196.96654
10269 Au 0 LAT Au 0 0.000 196.96654
10270 Au 0 LAT Au 0 0.000 196.96654
10271 Au 0 LAT Au 0 0.000 196.96654
10272 Au 0 LAT Au 0 0.000 196.96654
10273 Au 0 LAT Au 0 0.000 196.96654
10274 Au 0 LAT Au 0 0.000 196.96654
10275 Au 0 LAT Au 0 0.000 196.96654
10276 Au 0 LAT Au 0 0.000 196.96654
10277 Au 0 LAT Au 0 0.000 196.96654
10278 Au 0 LAT Au 0 0.000 196.96654
10279 Au 0 LAT Au 0 0.000 196.96654
10280 Au 0 LAT Au 0 0.000 196.96654
10281 Au 0 LAT Au 0 0.000 196.96654
10282 Au 0 LAT Au 0 0.000 196.96654
10283 Au 0 LAT Au 0 0.000 196.96654
10284 Au 0 LAT Au 0 0.000 196.96654
10285 Au 0 LAT Au 0 0.000 196.96654
10286 Au 0 LAT Au 0 0.000 196.96654
10287 Au 0 LAT Au 0 0.000 196.96654
10288 Au 0 LAT Au 0 0.000 196.96654
10289 Au 0 LAT Au 0 0.000 196.96654
10290 Au 0 LAT Au 0 0.000 196.96654
10291 Au 0 LAT Au 0 0.000 196.96654
10292 Au 0 LAT Au 0 0.000 196.96654
10293 Au 0 LAT Au 0 0.000 196.96654
10294 Au 0 LAT Au 0 0.000 196.96654
10295 Au 0 LAT Au 0 0.000 196.96654
10296 Au 0 LAT Au 0 0.000 196.96654
10297 Au 0 LAT Au 0 0.000 196.96654
10298 Au 0 LAT Au 0 0.000 196.96654
10299 Au 0 LAT Au 0 0.000 196.96654
10300 Au 0 LAT Au 0 0.000 196.96654
10301 Au 0 LAT Au 0 0.000 196.96654
10302 Au 0 LAT Au 0 0.000 196.96654
10303 Au 0 LAT Au 0 0.000 196.96654
10304 Au 0 LAT Au 0 0.000 196.96654
10305 Au 0 LAT Au 0 0.000 196.96654
10306 Au 0 LAT Au 0 0.000 196.96654
10307 Au 0 LAT Au 0 0.000 196.96654
10308 Au 0 LAT Au 0 0.000 196.96654
10309 Au 0 LAT Au 0 0.000 196.96654
10310 Au 0 LAT Au 0 0.000 196.96654
10311 Au 0 LAT Au 0 0.000 196.96654
10312 Au 0 LAT Au 0 0.000 196.96654
10313 Au 0 LAT Au 0 0.000 196.96654
10314 Au 0 LAT Au 0 0.000 196.96654
10315 Au 0 LAT Au 0 0.000 196.96654
10316 Au 0 LAT Au 0 0.000 196.96654
10317 Au 0 LAT Au 0 0.000 196.96654
10318 Au 0 LAT Au 0 0.000 196.96654
10319 Au 0 LAT Au 0 0.000 196.96654
10320 Au 0 LAT Au 0 0.000 196.96654
10321 Au 0 LAT Au 0 0.000 196.96654
10322 Au 0 LAT Au 0 0.000 196.96654
10323 Au 0 LAT Au 0 0.000 196.96654
10324 Au 0 LAT Au 0 0.000 196.96654
10325 Au 0 LAT Au 0 0.000 196.96654
10326 Au 0 LAT Au 0 0.000 196.96654
10327 Au 0 LAT Au 0 0.000 196.96654
10328 Au 0 LAT Au 0 0.000 196.96654
10329 Au 0 LAT Au 0 0.000 196.96654
10330 Au 0 LAT Au 0 0.000 196.96654
10331 Au 0 LAT Au 0 0.000 196.96654
10332 Au 0 LAT Au 0 0.000 196.96654
10333 Au 0 LAT Au 0 0.000 196.96654
10334 Au 0 LAT Au 0 0.000 196.96654
10335 Au 0 LAT Au 0 0.000 196.96654
10336 Au 0 LAT Au 0 0.000 196.96654
10337 Au 0 LAT Au 0 0.000 196.96654
10338 Au 0 LAT Au 0 0.000 196.96654
10339 Au 0 LAT Au 0 0.000 196.96654
10340 Au 0 LAT Au 0 0.000 196.96654
10341 Au 0 LAT Au 0 0.000 196.96654
10342 Au 0 LAT Au 0 0.000 196.96654
10343 Au 0 LAT Au 0 0.000 196.96654
10344 Au 0 LAT Au 0 0.000 196.96654
10345 Au 0 LAT Au 0 0.000 196.96654
10346 Au 0 LAT Au 0 0.000 196.96654
10347 Au 0 LAT Au 0 0.000 196.96654
10348 Au 0 LAT Au 0 0.000 196.96654
10349 Au 0 LAT Au 0 0.000 196.96654
10350 Au 0 LAT Au 0 0.000 196.96654
10351 Au 0 LAT Au 0 0.000 196.96654
10352 Au 0 LAT Au 0 0.000 196.96654
10353 Au 0 LAT Au 0 0.000 196.96654
10354 Au 0 LAT Au 0 0.000 196.96654
10355 Au 0 LAT Au 0 0.000 196.96654
10356 Au 0 LAT Au 0 0.000 196.96654
10357 Au 0 LAT Au 0 0.000 196.96654
10358 Au 0 LAT Au 0 0.000 196.96654
10359 Au 0 LAT Au 0 0.000 196.96654
10360 Au 0 LAT Au 0 0.000 196.96654
10361 Au 0 LAT Au 0 0.000 196.96654
10362 Au 0 LAT Au 0 0.000 196.96654
10363 Au 0 LAT Au 0 0.000 196.96654
10364 Au 0 LAT Au 0 0.000 196.96654
10365 Au 0 LAT Au 0 0.000 196.96654
10366 Au 0 LAT Au 0 0.000 196.96654
10367 Au 0 LAT Au 0 0.000 196.96654
10368 Au 0 LAT Au 0 0.000 196.96654
10369 Au 0 LAT Au 0 0.000 196.96654
10370 Au 0 LAT Au 0 0.000 196.96654
10371 Au 0 LAT Au 0 0.000 196.96654
10372 Au 0 LAT Au 0 0.000 196.96654
10373 Au 0 LAT Au 0 0.000 196.96654
10374 Au 0 LAT Au 0 0.000 196.96654
10375 Au 0 LAT Au 0 0.000 196.96654
10376 Au 0 LAT Au 0 0.000 196.96654
10377 Au 0 LAT Au 0 0.000 196.96654
10378 Au 0 LAT Au 0 0.000 196.96654
10379 Au 0 LAT Au 0 0.000 196.96654
10380 Au 0 LAT Au 0 0.000 196.96654
10381 Au 0 LAT Au 0 0.000 196.96654
10382 Au 0 LAT Au 0 0.000 196.96654
10383 Au 0 LAT Au 0 0.000 196.96654
10384 Au 0 LAT Au 0 0.000 196.96654
10385 Au 0 LAT Au 0 0.000 196.96654
10386 Au 0 LAT Au 0 0.000 196.96654
10387 Au 0 LAT Au 0 0.000 196.96654
10388 Au 0 LAT Au 0 0.000 196.96654
10389 Au 0 LAT Au 0 0.000 196.96654
10390 Au 0 LAT Au 0 0.000 196.96654
10391 Au 0 LAT Au 0 0.000 196.96654
10392 Au 0 LAT Au 0 0.000 196.96654
10393 Au 0 LAT Au 0 0.000 196.96654
10394 Au 0 LAT Au 0 0.000 196.96654
10395 Au 0 LAT Au 0 0.000 196.96654
10396 Au 0 LAT Au 0 0.000 196.96654
10397 Au 0 LAT Au 0 0.000 196.96654
10398 Au 0 LAT Au 0 0.000 196.96654
10399 Au 0 LAT Au 0 0.000 196.96654
10400 Au 0 LAT Au 0 0.000 196.96654
10401 Au 0 LAT Au 0 0.000 196.96654
10402 Au 0 LAT Au 0 0.000 196.96654
10403 Au 0 LAT Au 0 0.000 196.96654
10404 Au 0 LAT Au 0 0.000 196.96654
10405 Au 0 LAT Au 0 0.000 196.96654
10406 Au 0 LAT Au 0 0.000 196.96654
10407 Au 0 LAT Au 0 0.000 196.96654
10408 Au 0 LAT Au 0 0.000 196.96654
10409 Au 0 LAT Au 0 0.000 196.96654
10410 Au 0 LAT Au 0 0.000 196.96654
10411 Au 0 LAT Au 0 0.000 196.96654
10412 Au 0 LAT Au 0 0.000 196.96654
10413 Au 0 LAT Au 0 0.000 196.96654
10414 Au 0 LAT Au 0 0.000 196.96654
10415 Au 0 LAT Au 0 0.000 196.96654
10416 Au 0 LAT Au 0 0.000 196.96654
10417 Au 0 LAT Au 0 0.000 196.96654
10418 Au 0 LAT Au 0 0.000 196.96654
10419 Au 0 LAT Au 0 0.000 196.96654
10420 Au 0 LAT Au 0 0.000 196.96654
10421 Au 0 LAT Au 0 0.000 196.96654
10422 Au 0 LAT Au 0 0.000 196.96654
10423 Au 0 LAT Au 0 0.000 196.96654
10424 Au 0 LAT Au 0 0.000 196.96654
10425 Au 0 LAT Au 0 0.000 196.96654
10426 Au 0 LAT Au 0 0.000 196.96654
10427 Au 0 LAT Au 0 0.000 196.96654
10428 Au 0 LAT Au 0 0.000 196.96654
10429 Au 0 LAT Au 0 0.000 196.96654
10430 Au 0 LAT Au 0 0.000 196.96654
10431 Au 0 LAT Au 0 0.000 196.96654
10432 Au 0 LAT Au 0 0.000 196.96654
10433 Au 0 LAT Au 0 0.000 196.96654
10434 Au 0 LAT Au 0 0.000 196.96654
10435 Au 0 LAT Au 0 0.000 196.96654
10436 Au 0 LAT Au 0 0.000 196.96654
10437 Au 0 LAT Au 0 0.000 196.96654
10438 Au 0 LAT Au 0 0.000 196.96654
10439 Au 0 LAT Au 0 0.000 196.96654
10440 Au 0 LAT Au 0 0.000 196.96654
10441 Au 0 LAT Au 0 0.000 196.96654
10442 Au 0 LAT Au 0 0.000 196.96654
10443 Au 0 LAT Au 0 0.000 196.96654
10444 Au 0 LAT Au 0 0.000 196.96654
10445 Au 0 LAT Au 0 0.000 196.96654
10446 Au 0 LAT Au 0 0.000 196.96654
10447 Au 0 LAT Au 0 0.000 196.96654
10448 Au 0 LAT Au 0 0.000 196.96654
10449 Au 0 LAT Au 0 0.000 196.96654
10450 Au 0 LAT Au 0 0.000 196.96654
10451 Au 0 LAT Au 0 0.000 196.96654
10452 Au 0 LAT Au 0 0.000 196.96654
10453 Au 0 LAT Au 0 0.000 196.96654
10454 Au 0 LAT Au 0 0.000 196.96654
10455 Au 0 LAT Au 0 0.000 196.96654
10456 Au 0 LAT Au 0 0.000 196.96654
10457 Au 0 LAT Au 0 0.000 196.96654
10458 Au 0 LAT Au 0 0.000 196.96654
10459 Au 0 LAT Au 0 0.000 196.96654
10460 Au 0 LAT Au 0 0.000 196.96654
10461 Au 0 LAT Au 0 0.000 196.96654
10462 Au 0 LAT Au 0 0.000 196.96654
10463 Au 0 LAT Au 0 0.000 196.96654
10464 Au 0 LAT Au 0 0.000 196.96654
10465 Au 0 LAT Au 0 0.000 196.96654
10466 Au 0 LAT Au 0 0.000 196.96654
10467 Au 0 LAT Au 0 0.000 196.96654
10468 Au 0 LAT Au 0 0.000 196.96654
10469 Au 0 LAT Au 0 0.000 196.96654
10470 Au 0 LAT Au 0 0.000 196.96654
10471 Au 0 LAT Au 0 0.000 196.96654
10472 Au 0 LAT Au 0 0.000 196.96654
10473 Au 0 LAT Au 0 0.000 196.96654
10474 Au 0 LAT Au 0 0.000 196.96654
10475 Au 0 LAT Au 0 0.000 196.96654
10476 Au 0 LAT Au 0 0.000 196.96654
10477 Au 0 LAT Au 0 0.000 196.96654
10478 Au 0 LAT Au 0 0.000 196.96654
10479 Au 0 LAT Au 0 0.000 196.96654
10480 Au 0 LAT Au 0 0.000 196.96654
10481 Au 0 LAT Au 0 0.000 196.96654
10482 Au 0 LAT Au 0 0.000 196.96654
10483 Au 0 LAT Au 0 0.000 196.96654
10484 Au 0 LAT Au 0 0.000 196.96654
10485 Au 0 LAT Au 0 0.000 196.96654
10486 Au 0 LAT Au 0 0.000 196.96654
10487 Au 0 LAT Au 0 0.000 196.96654
10488 Au 0 LAT Au 0 0.000 196.96654
10489 Au 0 LAT Au 0 0.000 196.96654
10490 Au 0 LAT Au 0 0.000 196.96654
10491 Au 0 LAT Au 0 0.000 196.96654
10492 Au 0 LAT Au 0 0.000 196.96654
10493 Au 0 LAT Au 0 0.000 196.96654
10494 Au 0 LAT Au 0 0.000 196.96654
10495 Au 0 LAT Au 0 0.000 196.96654
10496 Au 0 LAT Au 0 0.000 196.96654
10497 Au 0 LAT Au 0 0.000 196.96654
10498 Au 0 LAT Au 0 0.000 196.96654
10499 Au 0 LAT Au 0 0.000 196.96654
10500 Au 0 LAT Au 0 0.000 196.96654
10501 Au 0 LAT Au 0 0.000 196.96654
10502 Au 0 LAT Au 0 0.000 196.96654
10503 Au 0 LAT Au 0 0.000 196.96654
10504 Au 0 LAT Au 0 0.000 196.96654
10505 Au 0 LAT Au 0 0.000 196.96654
10506 Au 0 LAT Au 0 0.000 196.96654
10507 Au 0 LAT Au 0 0.000 196.96654
10508 Au 0 LAT Au 0 0.000 196.96654
10509 Au 0 LAT Au 0 0.000 196.96654
10510 Au 0 LAT Au 0 0.000 196.96654
10511 Au 0 LAT Au 0 0.000 196.96654
10512 Au 0 LAT Au 0 0.000 196.96654
10513 Au 0 LAT Au 0 0.000 196.96654
10514 Au 0 LAT Au 0 0.000 196.96654
10515 Au 0 LAT Au 0 0.000 196.96654
10516 Au 0 LAT Au 0 0.000 196.96654
10517 Au 0 LAT Au 0 0.000 196.96654
10518 Au 0 LAT Au 0 0.000 196.96654
10519 Au 0 LAT Au 0 0.000 196.96654
10520 Au 0 LAT Au 0 0.000 196.96654
10521 Au 0 LAT Au 0 0.000 196.96654
10522 Au 0 LAT Au 0 0.000 196.96654
10523 Au 0 LAT Au 0 0.000 196.96654
10524 Au 0 LAT Au 0 0.000 196.96654
10525 Au 0 LAT Au 0 0.000 196.96654
10526 Au 0 LAT Au 0 0.000 196.96654
10527 Au 0 LAT Au 0 0.000 196.96654
10528 Au 0 LAT Au 0 0.000 196.96654
10529 Au 0 LAT Au 0 0.000 196.96654
10530 Au 0 LAT Au 0 0.000 196.96654
10531 Au 0 LAT Au 0 0.000 196.96654
10532 Au 0 LAT Au 0 0.000 196.96654
10533 Au 0 LAT Au 0 0.000 196.96654
10534 Au 0 LAT Au 0 0.000 196.96654
10535 Au 0 LAT Au 0 0.000 196.96654
10536 Au 0 LAT Au 0 0.000 196.96654
10537 Au 0 LAT Au 0 0.000 196.96654
10538 Au 0 LAT Au 0 0.000 196.96654
10539 Au 0 LAT Au 0 0.000 196.96654
10540 Au 0 LAT Au 0 0.000 196.96654
10541 Au 0 LAT Au 0 0.000 196.96654
10542 Au 0 LAT Au 0 0.000 196.96654
10543 Au 0 LAT Au 0 0.000 196.96654
10544 Au 0 LAT Au 0 0.000 196.96654
10545 Au 0 LAT Au 0 0.000 196.96654
10546 Au 0 LAT Au 0 0.000 196.96654
10547 Au 0 LAT Au 0 0.000 196.96654
10548 Au 0 LAT Au 0 0.000 196.96654
10549 Au 0 LAT Au 0 0.000 196.96654
10550 Au 0 LAT Au 0 0.000 196.96654
10551 Au 0 LAT Au 0 0.000 196.96654
10552 Au 0 LAT Au 0 0.000 196.96654
10553 Au 0 LAT Au 0 0.000 196.96654
10554 Au 0 LAT Au 0 0.000 196.96654
10555 Au 0 LAT Au 0 0.000 196.96654
10556 Au 0 LAT Au 0 0.000 196.96654
10557 Au 0 LAT Au 0 0.000 196.96654
10558 Au 0 LAT Au 0 0.000 196.96654
10559 Au 0 LAT Au 0 0.000 196.96654
10560 Au 0 LAT Au 0 0.000 196.96654
10561 Au 0 LAT Au 0 0.000 196.96654
10562 Au 0 LAT Au 0 0.000 196.96654
10563 Au 0 LAT Au 0 0.000 196.96654
10564 Au 0 LAT Au 0 0.000 196.96654
10565 Au 0 LAT Au 0 0.000 196.96654
10566 Au 0 LAT Au 0 0.000 196.96654
10567 Au 0 LAT Au 0 0.000 196.96654
10568 Au 0 LAT Au 0 0.000 196.96654
10569 Au 0 LAT Au 0 0.000 196.96654
10570 Au 0 LAT Au 0 0.000 196.96654
10571 Au 0 LAT Au 0 0.000 196.96654
10572 Au 0 LAT Au 0 0.000 196.96654
10573 Au 0 LAT Au 0 0.000 196.96654
10574 Au 0 LAT Au 0 0.000 196.96654
10575 Au 0 LAT Au 0 0.000 196.96654
10576 Au 0 LAT Au 0 0.000 196.96654
10577 Au 0 LAT Au 0 0.000 196.96654
10578 Au 0 LAT Au 0 0.000 196.96654
10579 Au 0 LAT Au 0 0.000 196.96654
10580 Au 0 LAT Au 0 0.000 196.96654
10581 Au 0 LAT Au 0 0.000 196.96654
10582 Au 0 LAT Au 0 0.000 196.96654
10583 Au 0 LAT Au 0 0.000 196.96654
10584 Au 0 LAT Au 0 0.000 196.96654
10585 Au 0 LAT Au 0 0.000 196.96654
10586 Au 0 LAT Au 0 0.000 196.96654
10587 Au 0 LAT Au 0 0.000 196.96654
10588 Au 0 LAT Au 0 0.000 196.96654
10589 Au 0 LAT Au 0 0.000 196.96654
10590 Au 0 LAT Au 0 0.000 196.96654
10591 Au 0 LAT Au 0 0.000 196.96654
10592 Au 0 LAT Au 0 0.000 196.96654
10593 Au 0 LAT Au 0 0.000 196.96654
10594 Au 0 LAT Au 0 0.000 196.96654
10595 Au 0 LAT Au 0 0.000 196.96654
10596 Au 0 LAT Au 0 0.000 196.96654
10597 Au 0 LAT Au 0 0.000 196.96654
10598 Au 0 LAT Au 0 0.000 196.96654
10599 Au 0 LAT Au 0 0.000 196.96654
10600 Au 0 LAT Au 0 0.000 196.96654
10601 Au 0 LAT Au 0 0.000 196.96654
10602 Au 0 LAT Au 0 0.000 196.96654
10603 Au 0 LAT Au 0 0.000 196.96654
10604 Au 0 LAT Au 0 0.000 196.96654
10605 Au 0 LAT Au 0 0.000 196.96654
10606 Au 0 LAT Au 0 0.000 196.96654
10607 Au 0 LAT Au 0 0.000 196.96654
10608 Au 0 LAT Au 0 0.000 196.96654
10609 Au 0 LAT Au 0 0.000 196.96654
10610 Au 0 LAT Au 0 0.000 196.96654
10611 Au 0 LAT Au 0 0.000 196.96654
10612 Au 0 LAT Au 0 0.000 196.96654
10613 Au 0 LAT Au 0 0.000 196.96654
10614 Au 0 LAT Au 0 0.000 196.96654
10615 Au 0 LAT Au 0 0.000 196.96654
10616 Au 0 LAT Au 0 0.000 196.96654
10617 Au 0 LAT Au 0 0.000 196.96654
10618 Au 0 LAT Au 0 0.000 196.96654
10619 Au 0 LAT Au 0 0.000 196.96654
10620 Au 0 LAT Au 0 0.000 196.96654
10621 Au 0 LAT Au 0 0.000 196.96654
10622 Au 0 LAT Au 0 0.000 196.96654
10623 Au 0 LAT Au 0 0.000 196.96654
10624 Au 0 LAT Au 0 0.000 196.96654
10625 Au 0 LAT Au 0 0.000 196.96654
10626 Au 0 LAT Au 0 0.000 196.96654
10627 Au 0 LAT Au 0 0.000 196.96654
10628 Au 0 LAT Au 0 0.000 196.96654
10629 Au 0 LAT Au 0 0.000 196.96654
10630 Au 0 LAT Au 0 0.000 196.96654
10631 Au 0 LAT Au 0 0.000 196.96654
10632 Au 0 LAT Au 0 0.000 196.96654
10633 Au 0 LAT Au 0 0.000 196.96654
10634 Au 0 LAT Au 0 0.000 196.96654
10635 Au 0 LAT Au 0 0.000 196.96654
10636 Au 0 LAT Au 0 0.000 196.96654
10637 Au 0 LAT Au 0 0.000 196.96654
10638 Au 0 LAT Au 0 0.000 196.96654
10639 Au 0 LAT Au 0 0.000 196.96654
10640 Au 0 LAT Au 0 0.000 196.96654
10641 Au 0 LAT Au 0 0.000 196.96654
10642 Au 0 LAT Au 0 0.000 196.96654
10643 Au 0 LAT Au 0 0.000 196.96654
10644 Au 0 LAT Au 0 0.000 196.96654
10645 Au 0 LAT Au 0 0.000 196.96654
10646 Au 0 LAT Au 0 0.000 196.96654
10647 Au 0 LAT Au 0 0.000 196.96654
10648 Au 0 LAT Au 0 0.000 196.96654
10649 Au 0 LAT Au 0 0.000 196.96654
10650 Au 0 LAT Au 0 0.000 196.96654
10651 Au 0 LAT Au 0 0.000 196.96654
10652 Au 0 LAT Au 0 0.000 196.96654
10653 Au 0 LAT Au 0 0.000 196.96654
10654 Au 0 LAT Au 0 0.000 196.96654
10655 Au 0 LAT Au 0 0.000 196.96654
10656 Au 0 LAT Au 0 0.000 196.96654
10657 Au 0 LAT Au 0 0.000 196.96654
10658 Au 0 LAT Au 0 0.000 196.96654
10659 Au 0 LAT Au 0 0.000 196.96654
10660 Au 0 LAT Au 0 0.000 196.96654
10661 Au 0 LAT Au 0 0.000 196.96654
10662 Au 0 LAT Au 0 0.000 196.96654
10663 Au 0 LAT Au 0 0.000 196.96654
10664 Au 0 LAT Au 0 0.000 196.96654
10665 Au 0 LAT Au 0 0.000 196.96654
10666 Au 0 LAT Au 0 0.000 196.96654
10667 Au 0 LAT Au 0 0.000 196.96654
10668 Au 0 LAT Au 0 0.000 196.96654
10669 Au 0 LAT Au 0 0.000 196.96654
10670 Au 0 LAT Au 0 0.000 196.96654
10671 Au 0 LAT Au 0 0.000 196.96654
10672 Au 0 LAT Au 0 0.000 196.96654
10673 Au 0 LAT Au 0 0.000 196.96654
10674 Au 0 LAT Au 0 0.000 196.96654
10675 Au 0 LAT Au 0 0.000 196.96654
10676 Au 0 LAT Au 0 0.000 196.96654
10677 Au 0 LAT Au 0 0.000 196.96654
10678 Au 0 LAT Au 0 0.000 196.96654
10679 Au 0 LAT Au 0 0.000 196.96654
10680 Au 0 LAT Au 0 0.000 196.96654
10681 Au 0 LAT Au 0 0.000 196.96654
10682 Au 0 LAT Au 0 0.000 196.96654
10683 Au 0 LAT Au 0 0.000 196.96654
10684 Au 0 LAT Au 0 0.000 196.96654
10685 Au 0 LAT Au 0 0.000 196.96654
10686 Au 0 LAT Au 0 0.000 196.96654
10687 Au 0 LAT Au 0 0.000 196.96654
10688 Au 0 LAT Au 0 0.000 196.96654
10689 Au 0 LAT Au 0 0.000 196.96654
10690 Au 0 LAT Au 0 0.000 196.96654
10691 Au 0 LAT Au 0 0.000 196.96654
10692 Au 0 LAT Au 0 0.000 196.96654
10693 Au 0 LAT Au 0 0.000 196.96654
10694 Au 0 LAT Au 0 0.000 196.96654
10695 Au 0 LAT Au 0 0.000 196.96654
10696 Au 0 LAT Au 0 0.000 196.96654
10697 Au 0 LAT Au 0 0.000 196.96654
10698 Au 0 LAT Au 0 0.000 196.96654
10699 Au 0 LAT Au 0 0.000 196.96654
10700 Au 0 LAT Au 0 0.000 196.96654
10701 Au 0 LAT Au 0 0.000 196.96654
10702 Au 0 LAT Au 0 0.000 196.96654
10703 Au 0 LAT Au 0 0.000 196.96654
10704 Au 0 LAT Au 0 0.000 196.96654
10705 Au 0 LAT Au 0 0.000 196.96654
10706 Au 0 LAT Au 0 0.000 196.96654
10707 Au 0 LAT Au 0 0.000 196.96654
10708 Au 0 LAT Au 0 0.000 196.96654
10709 Au 0 LAT Au 0 0.000 196.96654
10710 Au 0 LAT Au 0 0.000 196.96654
10711 Au 0 LAT Au 0 0.000 196.96654
10712 Au 0 LAT Au 0 0.000 196.96654
10713 Au 0 LAT Au 0 0.000 196.96654
10714 Au 0 LAT Au 0 0.000 196.96654
10715 Au 0 LAT Au 0 0.000 196.96654
10716 Au 0 LAT Au 0 0.000 196.96654
10717 Au 0 LAT Au 0 0.000 196.96654
10718 Au 0 LAT Au 0 0.000 196.96654
10719 Au 0 LAT Au 0 0.000 196.96654
10720 Au 0 LAT Au 0 0.000 196.96654
10721 Au 0 LAT Au 0 0.000 196.96654
10722 Au 0 LAT Au 0 0.000 196.96654
10723 Au 0 LAT Au 0 0.000 196.96654
10724 Au 0 LAT Au 0 0.000 196.96654
10725 Au 0 LAT Au 0 0.000 196.96654
10726 Au 0 LAT Au 0 0.000 196.96654
10727 Au 0 LAT Au 0 0.000 196.96654
10728 Au 0 LAT Au 0 0.000 196.96654
10729 Au 0 LAT Au 0 0.000 196.96654
10730 Au 0 LAT Au 0 0.000 196.96654
10731 Au 0 LAT Au 0 0.000 196.96654
10732 Au 0 LAT Au 0 0.000 196.96654
10733 Au 0 LAT Au 0 0.000 196.96654
10734 Au 0 LAT Au 0 0.000 196.96654
10735 Au 0 LAT Au 0 0.000 196.96654
10736 Au 0 LAT Au 0 0.000 196.96654
10737 Au 0 LAT Au 0 0.000 196.96654
10738 Au 0 LAT Au 0 0.000 196.96654
10739 Au 0 LAT Au 0 0.000 196.96654
10740 Au 0 LAT Au 0 0.000 196.96654
10741 Au 0 LAT Au 0 0.000 196.96654
10742 Au 0 LAT Au 0 0.000 196.96654
10743 Au 0 LAT Au 0 0.000 196.96654
10744 Au 0 LAT Au 0 0.000 196.96654
10745 Au 0 LAT Au 0 0.000 196.96654
10746 Au 0 LAT Au 0 0.000 196.96654
10747 Au 0 LAT Au 0 0.000 196.96654
10748 Au 0 LAT Au 0 0.000 196.96654
10749 Au 0 LAT Au 0 0.000 196.96654
10750 Au 0 LAT Au 0 0.000 196.96654
10751 Au 0 LAT Au 0 0.000 196.96654
10752 Au 0 LAT Au 0 0.000 196.96654
10753 Au 0 LAT Au 0 0.000 196.96654
10754 Au 0 LAT Au 0 0.000 196.96654
10755 Au 0 LAT Au 0 0.000 196.96654
10756 Au 0 LAT Au 0 0.000 196.96654
10757 Au 0 LAT Au 0 0.000 196.96654
10758 Au 0 LAT Au 0 0.000 196.96654
10759 Au 0 LAT Au 0 0.000 196.96654
10760 Au 0 LAT Au 0 0.000 196.96654
10761 Au 0 LAT Au 0 0.000 196.96654
10762 Au 0 LAT Au 0 0.000 196.96654
10763 Au 0 LAT Au 0 0.000 196.96654
10764 Au 0 LAT Au 0 0.000 196.96654
10765 Au 0 LAT Au 0 0.000 196.96654
10766 Au 0 LAT Au 0 0.000 196.96654
10767 Au 0 LAT Au 0 0.000 196.96654
10768 Au 0 LAT Au 0 0.000 196.96654
10769 Au 0 LAT Au 0 0.000 196.96654
10770 Au 0 LAT Au 0 0.000 196.96654
10771 Au 0 LAT Au 0 0.000 196.96654
10772 Au 0 LAT Au 0 0.000 196.96654
10773 Au 0 LAT Au 0 0.000 196.96654
10774 Au 0 LAT Au 0 0.000 196.96654
10775 Au 0 LAT Au 0 0.000 196.96654
10776 Au 0 LAT Au 0 0.000 196.96654
10777 Au 0 LAT Au 0 0.000 196.96654
10778 Au 0 LAT Au 0 0.000 196.96654
10779 Au 0 LAT Au 0 0.000 196.96654
10780 Au 0 LAT Au 0 0.000 196.96654
10781 Au 0 LAT Au 0 0.000 196.96654
10782 Au 0 LAT Au 0 0.000 196.96654
10783 Au 0 LAT Au 0 0.000 196.96654
10784 Au 0 LAT Au 0 0.000 196.96654
10785 Au 0 LAT Au 0 0.000 196.96654
10786 Au 0 LAT Au 0 0.000 196.96654
10787 Au 0 LAT Au 0 0.000 196.96654
10788 Au 0 LAT Au 0 0.000 196.96654
10789 Au 0 LAT Au 0 0.000 196.96654
10790 Au 0 LAT Au 0 0.000 196.96654
10791 Au 0 LAT Au 0 0.000 196.96654
10792 Au 0 LAT Au 0 0.000 196.96654
10793 Au 0 LAT Au 0 0.000 196.96654
10794 Au 0 LAT Au 0 0.000 196.96654
10795 Au 0 LAT Au 0 0.000 196.96654
10796 Au 0 LAT Au 0 0.000 196.96654
10797 Au 0 LAT Au 0 0.000 196.96654
10798 Au 0 LAT Au 0 0.000 196.96654
10799 Au 0 LAT Au 0 0.000 196.96654
10800 Au 0 LAT Au 0 0.000 196.96654
10801 Au 0 LAT Au 0 0.000 196.96654
10802 Au 0 LAT Au 0 0.000 196.96654
10803 Au 0 LAT Au 0 0.000 196.96654
10804 Au 0 LAT Au 0 0.000 196.96654
10805 Au 0 LAT Au 0 0.000 196.96654
10806 Au 0 LAT Au 0 0.000 196.96654
10807 Au 0 LAT Au 0 0.000 196.96654
10808 Au 0 LAT Au 0 0.000 196.96654
10809 Au 0 LAT Au 0 0.000 196.96654
10810 Au 0 LAT Au 0 0.000 196.96654
10811 Au 0 LAT Au 0 0.000 196.96654
10812 Au 0 LAT Au 0 0.000 196.96654
10813 Au 0 LAT Au 0 0.000 196.96654
10814 Au 0 LAT Au 0 0.000 196.96654
10815 Au 0 LAT Au 0 0.000 196.96654
10816 Au 0 LAT Au 0 0.000 196.96654
10817 Au 0 LAT Au 0 0.000 196.96654
10818 Au 0 LAT Au 0 0.000 196.96654
10819 Au 0 LAT Au 0 0.000 196.96654
10820 Au 0 LAT Au 0 0.000 196.96654
10821 Au 0 LAT Au 0 0.000 196.96654
10822 Au 0 LAT Au 0 0.000 196.96654
10823 Au 0 LAT Au 0 0.000 196.96654
10824 Au 0 LAT Au 0 0.000 196.96654
10825 Au 0 LAT Au 0 0.000 196.96654
10826 Au 0 LAT Au 0 0.000 196.96654
10827 Au 0 LAT Au 0 0.000 196.96654
10828 Au 0 LAT Au 0 0.000 196.96654
10829 Au 0 LAT Au 0 0.000 196.96654
10830 Au 0 LAT Au 0 0.000 196.96654
10831 Au 0 LAT Au 0 0.000 196.96654
10832 Au 0 LAT Au 0 0.000 196.96654
10833 Au 0 LAT Au 0 0.000 196.96654
10834 Au 0 LAT Au 0 0.000 196.96654
10835 Au 0 LAT Au 0 0.000 196.96654
10836 Au 0 LAT Au 0 0.000 196.96654
10837 Au 0 LAT Au 0 0.000 196.96654
10838 Au 0 LAT Au 0 0.000 196.96654
10839 Au 0 LAT Au 0 0.000 196.96654
10840 Au 0 LAT Au 0 0.000 196.96654
10841 Au 0 LAT Au 0 0.000 196.96654
10842 Au 0 LAT Au 0 0.000 196.96654
10843 Au 0 LAT Au 0 0.000 196.96654
10844 Au 0 LAT Au 0 0.000 196.96654
10845 Au 0 LAT Au 0 0.000 196.96654
10846 Au 0 LAT Au 0 0.000 196.96654
10847 Au 0 LAT Au 0 0.000 196.96654
10848 Au 0 LAT Au 0 0.000 196.96654
10849 Au 0 LAT Au 0 0.000 196.96654
10850 Au 0 LAT Au 0 0.000 196.96654
10851 Au 0 LAT Au 0 0.000 196.96654
10852 Au 0 LAT Au 0 0.000 196.96654
10853 Au 0 LAT Au 0 0.000 196.96654
10854 Au 0 LAT Au 0 0.000 196.96654
10855 Au 0 LAT Au 0 0.000 196.96654
10856 Au 0 LAT Au 0 0.000 196.96654
10857 Au 0 LAT Au 0 0.000 196.96654
10858 Au 0 LAT Au 0 0.000 196.96654
10859 Au 0 LAT Au 0 0.000 196.96654
10860 Au 0 LAT Au 0 0.000 196.96654
10861 Au 0 LAT Au 0 0.000 196.96654
10862 Au 0 LAT Au 0 0.000 196.96654
10863 Au 0 LAT Au 0 0.000 196.96654
10864 Au 0 LAT Au 0 0.000 196.96654
10865 Au 0 LAT Au 0 0.000 196.96654
10866 Au 0 LAT Au 0 0.000 196.96654
10867 Au 0 LAT Au 0 0.000 196.96654
10868 Au 0 LAT Au 0 0.000 196.96654
10869 Au 0 LAT Au 0 0.000 196.96654
10870 Au 0 LAT Au 0 0.000 196.96654
10871 Au 0 LAT Au 0 0.000 196.96654
10872 Au 0 LAT Au 0 0.000 196.96654
10873 Au 0 LAT Au 0 0.000 196.96654
10874 Au 0 LAT Au 0 0.000 196.96654
10875 Au 0 LAT Au 0 0.000 196.96654
10876 Au 0 LAT Au 0 0.000 196.96654
10877 Au 0 LAT Au 0 0.000 196.96654
10878 Au 0 LAT Au 0 0.000 196.96654
10879 Au 0 LAT Au 0 0.000 196.96654
10880 Au 0 LAT Au 0 0.000 196.96654
10881 Au 0 LAT Au 0 0.000 196.96654
10882 Au 0 LAT Au 0 0.000 196.96654
10883 Au 0 LAT Au 0 0.000 196.96654
10884 Au 0 LAT Au 0 0.000 196.96654
10885 Au 0 LAT Au 0 0.000 196.96654
10886 Au 0 LAT Au 0 0.000 196.96654
10887 Au 0 LAT Au 0 0.000 196.96654
10888 Au 0 LAT Au 0 0.000 196.96654
10889 Au 0 LAT Au 0 0.000 196.96654
10890 Au 0 LAT Au 0 0.000 196.96654
10891 Au 0 LAT Au 0 0.000 196.96654
10892 Au 0 LAT Au 0 0.000 196.96654
10893 Au 0 LAT Au 0 0.000 196.96654
10894 Au 0 LAT Au 0 0.000 196.96654
10895 Au 0 LAT Au 0 0.000 196.96654
10896 Au 0 LAT Au 0 0.000 196.96654
10897 Au 0 LAT Au 0 0.000 196.96654
10898 Au 0 LAT Au 0 0.000 196.96654
10899 Au 0 LAT Au 0 0.000 196.96654
10900 Au 0 LAT Au 0 0.000 196.96654
10901 Au 0 LAT Au 0 0.000 196.96654
10902 Au 0 LAT Au 0 0.000 196.96654
10903 Au 0 LAT Au 0 0.000 196.96654
10904 Au 0 LAT Au 0 0.000 196.96654
10905 Au 0 LAT Au 0 0.000 196.96654
10906 Au 0 LAT Au 0 0.000 196.96654
10907 Au 0 LAT Au 0 0.000 196.96654
10908 Au 0 LAT Au 0 0.000 196.96654
10909 Au 0 LAT Au 0 0.000 196.96654
10910 Au 0 LAT Au 0 0.000 196.96654
10911 Au 0 LAT Au 0 0.000 196.96654
10912 Au 0 LAT Au 0 0.000 196.96654
10913 Au 0 LAT Au 0 0.000 196.96654
10914 Au 0 LAT Au 0 0.000 196.96654
10915 Au 0 LAT Au 0 0.000 196.96654
10916 Au 0 LAT Au 0 0.000 196.96654
10917 Au 0 LAT Au 0 0.000 196.96654
10918 Au 0 LAT Au 0 0.000 196.96654
10919 Au 0 LAT Au 0 0.000 196.96654
10920 Au 0 LAT Au 0 0.000 196.96654
10921 Au 0 LAT Au 0 0.000 196.96654
10922 Au 0 LAT Au 0 0.000 196.96654
10923 Au 0 LAT Au 0 0.000 196.96654
10924 Au 0 LAT Au 0 0.000 196.96654
10925 Au 0 LAT Au 0 0.000 196.96654
10926 Au 0 LAT Au 0 0.000 196.96654
10927 Au 0 LAT Au 0 0.000 196.96654
10928 Au 0 LAT Au 0 0.000 196.96654
10929 Au 0 LAT Au 0 0.000 196.96654
10930 Au 0 LAT Au 0 0.000 196.96654
10931 Au 0 LAT Au 0 0.000 196.96654
10932 Au 0 LAT Au 0 0.000 196.96654
10933 Au 0 LAT Au 0 0.000 196.96654
10934 Au 0 LAT Au 0 0.000 196.96654
10935 Au 0 LAT Au 0 0.000 196.96654
10936 Au 0 LAT Au 0 0.000 196.96654
10937 Au 0 LAT Au 0 0.000 196.96654
10938 Au 0 LAT Au 0 0.000 196.96654
10939 Au 0 LAT Au 0 0.000 196.96654
10940 Au 0 LAT Au 0 0.000 196.96654
10941 Au 0 LAT Au 0 0.000 196.96654
10942 Au 0 LAT Au 0 0.000 196.96654
10943 Au 0 LAT Au 0 0.000 196.96654
10944 Au 0 LAT Au 0 0.000 196.96654
10945 Au 0 LAT Au 0 0.000 196.96654
10946 Au 0 LAT Au 0 0.000 196.96654
10947 Au 0 LAT Au 0 0.000 196.96654
10948 Au 0 LAT Au 0 0.000 196.96654
10949 Au 0 LAT Au 0 0.000 196.96654
10950 Au 0 LAT Au 0 0.000 196.96654
10951 Au 0 LAT Au 0 0.000 196.96654
10952 Au 0 LAT Au 0 0.000 196.96654
10953 Au 0 LAT Au 0 0.000 196.96654
10954 Au 0 LAT Au 0 0.000 196.96654
10955 Au 0 LAT Au 0 0.000 196.96654
10956 Au 0 LAT Au 0 0.000 196.96654
10957 Au 0 LAT Au 0 0.000 196.96654
10958 Au 0 LAT Au 0 0.000 196.96654
10959 Au 0 LAT Au 0 0.000 196.96654
10960 Au 0 LAT Au 0 0.000 196.96654
10961 Au 0 LAT Au 0 0.000 196.96654
10962 Au 0 LAT Au 0 0.000 196.96654
10963 Au 0 LAT Au 0 0.000 196.96654
10964 Au 0 LAT Au 0 0.000 196.96654
10965 Au 0 LAT Au 0 0.000 196.96654
10966 Au 0 LAT Au 0 0.000 196.96654
10967 Au 0 LAT Au 0 0.000 196.96654
10968 Au 0 LAT Au 0 0.000 196.96654
10969 Au 0 LAT Au 0 0.000 196.96654
10970 Au 0 LAT Au 0 0.000 196.96654
10971 Au 0 LAT Au 0 0.000 196.96654
10972 Au 0 LAT Au 0 0.000 196.96654
10973 Au 0 LAT Au 0 0.000 196.96654
10974 Au 0 LAT Au 0 0.000 196.96654
10975 Au 0 LAT Au 0 0.000 196.96654
10976 Au 0 LAT Au 0 0.000 196.96654
10977 Au 0 LAT Au 0 0.000 196.96654
10978 Au 0 LAT Au 0 0.000 196.96654
10979 Au 0 LAT Au 0 0.000 196.96654
10980 Au 0 LAT Au 0 0.000 196.96654
10981 Au 0 LAT Au 0 0.000 196.96654
10982 Au 0 LAT Au 0 0.000 196.96654
10983 Au 0 LAT Au 0 0.000 196.96654
10984 Au 0 LAT Au 0 0.000 196.96654
10985 Au 0 LAT Au 0 0.000 196.96654
10986 Au 0 LAT Au 0 0.000 196.96654
10987 Au 0 LAT Au 0 0.000 196.96654
10988 Au 0 LAT Au 0 0.000 196.96654
10989 Au 0 LAT Au 0 0.000 196.96654
10990 Au 0 LAT Au 0 0.000 196.96654
10991 Au 0 LAT Au 0 0.000 196.96654
10992 Au 0 LAT Au 0 0.000 196.96654
10993 Au 0 LAT Au 0 0.000 196.96654
10994 Au 0 LAT Au 0 0.000 196.96654
10995 Au 0 LAT Au 0 0.000 196.96654
10996 Au 0 LAT Au 0 0.000 196.96654
10997 Au 0 LAT Au 0 0.000 196.96654
10998 Au 0 LAT Au 0 0.000 196.96654
10999 Au 0 LAT Au 0 0.000 196.96654
11000 Au 0 LAT Au 0 0.000 196.96654
11001 Au 0 LAT Au 0 0.000 196.96654
11002 Au 0 LAT Au 0 0.000 196.96654
11003 Au 0 LAT Au 0 0.000 196.96654
11004 Au 0 LAT Au 0 0.000 196.96654
11005 Au 0 LAT Au 0 0.000 196.96654
11006 Au 0 LAT Au 0 0.000 196.96654
11007 Au 0 LAT Au 0 0.000 196.96654
11008 Au 0 LAT Au 0 0.000 196.96654
11009 Au 0 LAT Au 0 0.000 196.96654
11010 Au 0 LAT Au 0 0.000 196.96654
11011 Au 0 LAT Au 0 0.000 196.96654
11012 Au 0 LAT Au 0 0.000 196.96654
11013 Au 0 LAT Au 0 0.000 196.96654
11014 Au 0 LAT Au 0 0.000 196.96654
11015 Au 0 LAT Au 0 0.000 196.96654
11016 Au 0 LAT Au 0 0.000 196.96654
11017 Au 0 LAT Au 0 0.000 196.96654
11018 Au 0 LAT Au 0 0.000 196.96654
11019 Au 0 LAT Au 0 0.000 196.96654
11020 Au 0 LAT Au 0 0.000 196.96654
11021 Au 0 LAT Au 0 0.000 196.96654
11022 Au 0 LAT Au 0 0.000 196.96654
11023 Au 0 LAT Au 0 0.000 196.96654
11024 Au 0 LAT Au 0 0.000 196.96654
11025 Au 0 LAT Au 0 0.000 196.96654
11026 Au 0 LAT Au 0 0.000 196.96654
11027 Au 0 LAT Au 0 0.000 196.96654
11028 Au 0 LAT Au 0 0.000 196.96654
11029 Au 0 LAT Au 0 0.000 196.96654
11030 Au 0 LAT Au 0 0.000 196.96654
11031 Au 0 LAT Au 0 0.000 196.96654
11032 Au 0 LAT Au 0 0.000 196.96654
11033 Au 0 LAT Au 0 0.000 196.96654
11034 Au 0 LAT Au 0 0.000 196.96654
11035 Au 0 LAT Au 0 0.000 196.96654
11036 Au 0 LAT Au 0 0.000 196.96654
11037 Au 0 LAT Au 0 0.000 196.96654
11038 Au 0 LAT Au 0 0.000 196.96654
11039 Au 0 LAT Au 0 0.000 196.96654
11040 Au 0 LAT Au 0 0.000 196.96654
11041 Au 0 LAT Au 0 0.000 196.96654
11042 Au 0 LAT Au 0 0.000 196.96654
11043 Au 0 LAT Au 0 0.000 196.96654
11044 Au 0 LAT Au 0 0.000 196.96654
11045 Au 0 LAT Au 0 0.000 196.96654
11046 Au 0 LAT Au 0 0.000 196.96654
11047 Au 0 LAT Au 0 0.000 196.96654
11048 Au 0 LAT Au 0 0.000 196.96654
11049 Au 0 LAT Au 0 0.000 196.96654
11050 Au 0 LAT Au 0 0.000 196.96654
11051 Au 0 LAT Au 0 0.000 196.96654
11052 Au 0 LAT Au 0 0.000 196.96654
11053 Au 0 LAT Au 0 0.000 196.96654
11054 Au 0 LAT Au 0 0.000 196.96654
11055 Au 0 LAT Au 0 0.000 196.96654
11056 Au 0 LAT Au 0 0.000 196.96654
11057 Au 0 LAT Au 0 0.000 196.96654
11058 Au 0 LAT Au 0 0.000 196.96654
11059 Au 0 LAT Au 0 0.000 196.96654
11060 Au 0 LAT Au 0 0.000 196.96654
11061 Au 0 LAT Au 0 0.000 196.96654
11062 Au 0 LAT Au 0 0.000 196.96654
11063 Au 0 LAT Au 0 0.000 196.96654
11064 Au 0 LAT Au 0 0.000 196.96654
11065 Au 0 LAT Au 0 0.000 196.96654
11066 Au 0 LAT Au 0 0.000 196.96654
11067 Au 0 LAT Au 0 0.000 196.96654
11068 Au 0 LAT Au 0 0.000 196.96654
11069 Au 0 LAT Au 0 0.000 196.96654
11070 Au 0 LAT Au 0 0.000 196.96654
11071 Au 0 LAT Au 0 0.000 196.96654
11072 Au 0 LAT Au 0 0.000 196.96654
11073 Au 0 LAT Au 0 0.000 196.96654
11074 Au 0 LAT Au 0 0.000 196.96654
11075 Au 0 LAT Au 0 0.000 196.96654
11076 Au 0 LAT Au 0 0.000 196.96654
11077 Au 0 LAT Au 0 0.000 196.96654
11078 Au 0 LAT Au 0 0.000 196.96654
11079 Au 0 LAT Au 0 0.000 196.96654
11080 Au 0 LAT Au 0 0.000 196.96654
11081 Au 0 LAT Au 0 0.000 196.96654
11082 Au 0 LAT Au 0 0.000 196.96654
11083 Au 0 LAT Au 0 0.000 196.96654
11084 Au 0 LAT Au 0 0.000 196.96654
11085 Au 0 LAT Au 0 0.000 196.96654
11086 Au 0 LAT Au 0 0.000 196.96654
11087 Au 0 LAT Au 0 0.000 196.96654
11088 Au 0 LAT Au 0 0.000 196.96654
11089 Au 0 LAT Au 0 0.000 196.96654
11090 Au 0 LAT Au 0 0.000 196.96654
11091 Au 0 LAT Au 0 0.000 196.96654
11092 Au 0 LAT Au 0 0.000 196.96654
11093 Au 0 LAT Au 0 0.000 196.96654
11094 Au 0 LAT Au 0 0.000 196.96654
11095 Au 0 LAT Au 0 0.000 196.96654
11096 Au 0 LAT Au 0 0.000 196.96654
11097 Au 0 LAT Au 0 0.000 196.96654
11098 Au 0 LAT Au 0 0.000 196.96654
11099 Au 0 LAT Au 0 0.000 196.96654
11100 Au 0 LAT Au 0 0.000 196.96654
11101 Au 0 LAT Au 0 0.000 196.96654
11102 Au 0 LAT Au 0 0.000 196.96654
11103 Au 0 LAT Au 0 0.000 196.96654
11104 Au 0 LAT Au 0 0.000 196.96654
11105 Au 0 LAT Au 0 0.000 196.96654
11106 Au 0 LAT Au 0 0.000 196.96654
11107 Au 0 LAT Au 0 0.000 196.96654
11108 Au 0 LAT Au 0 0.000 196.96654
11109 Au 0 LAT Au 0 0.000 196.96654
11110 Au 0 LAT Au 0 0.000 196.96654
11111 Au 0 LAT Au 0 0.000 196.96654
11112 Au 0 LAT Au 0 0.000 196.96654
11113 Au 0 LAT Au 0 0.000 196.96654
11114 Au 0 LAT Au 0 0.000 196.96654
11115 Au 0 LAT Au 0 0.000 196.96654
11116 Au 0 LAT Au 0 0.000 196.96654
11117 Au 0 LAT Au 0 0.000 196.96654
11118 Au 0 LAT Au 0 0.000 196.96654
11119 Au 0 LAT Au 0 0.000 196.96654
11120 Au 0 LAT Au 0 0.000 196.96654
11121 Au 0 LAT Au 0 0.000 196.96654
11122 Au 0 LAT Au 0 0.000 196.96654
11123 Au 0 LAT Au 0 0.000 196.96654
11124 Au 0 LAT Au 0 0.000 196.96654
11125 Au 0 LAT Au 0 0.000 196.96654
11126 Au 0 LAT Au 0 0.000 196.96654
11127 Au 0 LAT Au 0 0.000 196.96654
11128 Au 0 LAT Au 0 0.000 196.96654
11129 Au 0 LAT Au 0 0.000 196.96654
11130 Au 0 LAT Au 0 0.000 196.96654
11131 Au 0 LAT Au 0 0.000 196.96654
11132 Au 0 LAT Au 0 0.000 196.96654
11133 Au 0 LAT Au 0 0.000 196.96654
11134 Au 0 LAT Au 0 0.000 196.96654
11135 Au 0 LAT Au 0 0.000 196.96654
11136 Au 0 LAT Au 0 0.000 196.96654
11137 Au 0 LAT Au 0 0.000 196.96654
11138 Au 0 LAT Au 0 0.000 196.96654
11139 Au 0 LAT Au 0 0.000 196.96654
11140 Au 0 LAT Au 0 0.000 196.96654
11141 Au 0 LAT Au 0 0.000 196.96654
11142 Au 0 LAT Au 0 0.000 196.96654
11143 Au 0 LAT Au 0 0.000 196.96654
11144 Au 0 LAT Au 0 0.000 196.96654
11145 Au 0 LAT Au 0 0.000 196.96654
11146 Au 0 LAT Au 0 0.000 196.96654
11147 Au 0 LAT Au 0 0.000 196.96654
11148 Au 0 LAT Au 0 0.000 196.96654
11149 Au 0 LAT Au 0 0.000 196.96654
11150 Au 0 LAT Au 0 0.000 196.96654
11151 Au 0 LAT Au 0 0.000 196.96654
11152 Au 0 LAT Au 0 0.000 196.96654
11153 Au 0 LAT Au 0 0.000 196.96654
11154 Au 0 LAT Au 0 0.000 196.96654
11155 Au 0 LAT Au 0 0.000 196.96654
11156 Au 0 LAT Au 0 0.000 196.96654
11157 Au 0 LAT Au 0 0.000 196.96654
11158 Au 0 LAT Au 0 0.000 196.96654
11159 Au 0 LAT Au 0 0.000 196.96654
11160 Au 0 LAT Au 0 0.000 196.96654
11161 Au 0 LAT Au 0 0.000 196.96654
11162 Au 0 LAT Au 0 0.000 196.96654
11163 Au 0 LAT Au 0 0.000 196.96654
11164 Au 0 LAT Au 0 0.000 196.96654
11165 Au 0 LAT Au 0 0.000 196.96654
11166 Au 0 LAT Au 0 0.000 196.96654
11167 Au 0 LAT Au 0 0.000 196.96654
11168 Au 0 LAT Au 0 0.000 196.96654
11169 Au 0 LAT Au 0 0.000 196.96654
11170 Au 0 LAT Au 0 0.000 196.96654
11171 Au 0 LAT Au 0 0.000 196.96654
11172 Au 0 LAT Au 0 0.000 196.96654
11173 Au 0 LAT Au 0 0.000 196.96654
11174 Au 0 LAT Au 0 0.000 196.96654
11175 Au 0 LAT Au 0 0.000 196.96654
11176 Au 0 LAT Au 0 0.000 196.96654
11177 Au 0 LAT Au 0 0.000 196.96654
11178 Au 0 LAT Au 0 0.000 196.96654
11179 Au 0 LAT Au 0 0.000 196.96654
11180 Au 0 LAT Au 0 0.000 196.96654
11181 Au 0 LAT Au 0 0.000 196.96654
11182 Au 0 LAT Au 0 0.000 196.96654
11183 Au 0 LAT Au 0 0.000 196.96654
11184 Au 0 LAT Au 0 0.000 196.96654
11185 Au 0 LAT Au 0 0.000 196.96654
11186 Au 0 LAT Au 0 0.000 196.96654
11187 Au 0 LAT Au 0 0.000 196.96654
11188 Au 0 LAT Au 0 0.000 196.96654
11189 Au 0 LAT Au 0 0.000 196.96654
11190 Au 0 LAT Au 0 0.000 196.96654
11191 Au 0 LAT Au 0 0.000 196.96654
11192 Au 0 LAT Au 0 0.000 196.96654
11193 Au 0 LAT Au 0 0.000 196.96654
11194 Au 0 LAT Au 0 0.000 196.96654
11195 Au 0 LAT Au 0 0.000 196.96654
11196 Au 0 LAT Au 0 0.000 196.96654
11197 Au 0 LAT Au 0 0.000 196.96654
11198 Au 0 LAT Au 0 0.000 196.96654
11199 Au 0 LAT Au 0 0.000 196.96654
11200 Au 0 LAT Au 0 0.000 196.96654
11201 Au 0 LAT Au 0 0.000 196.96654
11202 Au 0 LAT Au 0 0.000 196.96654
11203 Au 0 LAT Au 0 0.000 196.96654
11204 Au 0 LAT Au 0 0.000 196.96654
11205 Au 0 LAT Au 0 0.000 196.96654
11206 Au 0 LAT Au 0 0.000 196.96654
11207 Au 0 LAT Au 0 0.000 196.96654
11208 Au 0 LAT Au 0 0.000 196.96654
11209 Au 0 LAT Au 0 0.000 196.96654
11210 Au 0 LAT Au 0 0.000 196.96654
11211 Au 0 LAT Au 0 0.000 196.96654
11212 Au 0 LAT Au 0 0.000 196.96654
11213 Au 0 LAT Au 0 0.000 196.96654
11214 Au 0 LAT Au 0 0.000 196.96654
11215 Au 0 LAT Au 0 0.000 196.96654
11216 Au 0 LAT Au 0 0.000 196.96654
11217 Au 0 LAT Au 0 0.000 196.96654
11218 Au 0 LAT Au 0 0.000 196.96654
11219 Au 0 LAT Au 0 0.000 196.96654
11220 Au 0 LAT Au 0 0.000 196.96654
11221 Au 0 LAT Au 0 0.000 196.96654
11222 Au 0 LAT Au 0 0.000 196.96654
11223 Au 0 LAT Au 0 0.000 196.96654
11224 Au 0 LAT Au 0 0.000 196.96654
11225 Au 0 LAT Au 0 0.000 196.96654
11226 Au 0 LAT Au 0 0.000 196.96654
11227 Au 0 LAT Au 0 0.000 196.96654
11228 Au 0 LAT Au 0 0.000 196.96654
11229 Au 0 LAT Au 0 0.000 196.96654
11230 Au 0 LAT Au 0 0.000 196.96654
11231 Au 0 LAT Au 0 0.000 196.96654
11232 Au 0 LAT Au 0 0.000 196.96654
11233 Au 0 LAT Au 0 0.000 196.96654
11234 Au 0 LAT Au 0 0.000 196.96654
11235 Au 0 LAT Au 0 0.000 196.96654
11236 Au 0 LAT Au 0 0.000 196.96654
11237 Au 0 LAT Au 0 0.000 196.96654
11238 Au 0 LAT Au 0 0.000 196.96654
11239 Au 0 LAT Au 0 0.000 196.96654
11240 Au 0 LAT Au 0 0.000 196.96654
11241 Au 0 LAT Au 0 0.000 196.96654
11242 Au 0 LAT Au 0 0.000 196.96654
11243 Au 0 LAT Au 0 0.000 196.96654
11244 Au 0 LAT Au 0 0.000 196.96654
11245 Au 0 LAT Au 0 0.000 196.96654
11246 Au 0 LAT Au 0 0.000 196.96654
11247 Au 0 LAT Au 0 0.000 196.96654
11248 Au 0 LAT Au 0 0.000 196.96654
11249 Au 0 LAT Au 0 0.000 196.96654
11250 Au 0 LAT Au 0 0.000 196.96654
11251 Au 0 LAT Au 0 0.000 196.96654
11252 Au 0 LAT Au 0 0.000 196.96654
11253 Au 0 LAT Au 0 0.000 196.96654
11254 Au 0 LAT Au 0 0.000 196.96654
11255 Au 0 LAT Au 0 0.000 196.96654
11256 Au 0 LAT Au 0 0.000 196.96654
11257 Au 0 LAT Au 0 0.000 196.96654
11258 Au 0 LAT Au 0 0.000 196.96654
11259 Au 0 LAT Au 0 0.000 196.96654
11260 Au 0 LAT Au 0 0.000 196.96654
11261 Au 0 LAT Au 0 0.000 196.96654
11262 Au 0 LAT Au 0 0.000 196.96654
11263 Au 0 LAT Au 0 0.000 196.96654
11264 Au 0 LAT Au 0 0.000 196.96654
11265 Au 0 LAT Au 0 0.000 196.96654
11266 Au 0 LAT Au 0 0.000 196.96654
11267 Au 0 LAT Au 0 0.000 196.96654
11268 Au 0 LAT Au 0 0.000 196.96654
11269 Au 0 LAT Au 0 0.000 196.96654
11270 Au 0 LAT Au 0 0.000 196.96654
11271 Au 0 LAT Au 0 0.000 196.96654
11272 Au 0 LAT Au 0 0.000 196.96654
11273 Au 0 LAT Au 0 0.000 196.96654
11274 Au 0 LAT Au 0 0.000 196.96654
11275 Au 0 LAT Au 0 0.000 196.96654
11276 Au 0 LAT Au 0 0.000 196.96654
11277 Au 0 LAT Au 0 0.000 196.96654
11278 Au 0 LAT Au 0 0.000 196.96654
11279 Au 0 LAT Au 0 0.000 196.96654
11280 Au 0 LAT Au 0 0.000 196.96654
11281 Au 0 LAT Au 0 0.000 196.96654
11282 Au 0 LAT Au 0 0.000 196.96654
11283 Au 0 LAT Au 0 0.000 196.96654
11284 Au 0 LAT Au 0 0.000 196.96654
11285 Au 0 LAT Au 0 0.000 196.96654
11286 Au 0 LAT Au 0 0.000 196.96654
11287 Au 0 LAT Au 0 0.000 196.96654
11288 Au 0 LAT Au 0 0.000 196.96654
11289 Au 0 LAT Au 0 0.000 196.96654
11290 Au 0 LAT Au 0 0.000 196.96654
11291 Au 0 LAT Au 0 0.000 196.96654
11292 Au 0 LAT Au 0 0.000 196.96654
11293 Au 0 LAT Au 0 0.000 196.96654
11294 Au 0 LAT Au 0 0.000 196.96654
11295 Au 0 LAT Au 0 0.000 196.96654
11296 Au 0 LAT Au 0 0.000 196.96654
11297 Au 0 LAT Au 0 0.000 196.96654
11298 Au 0 LAT Au 0 0.000 196.96654
11299 Au 0 LAT Au 0 0.000 196.96654
11300 Au 0 LAT Au 0 0.000 196.96654
11301 Au 0 LAT Au 0 0.000 196.96654
11302 Au 0 LAT Au 0 0.000 196.96654
11303 Au 0 LAT Au 0 0.000 196.96654
11304 Au 0 LAT Au 0 0.000 196.96654
11305 Au 0 LAT Au 0 0.000 196.96654
11306 Au 0 LAT Au 0 0.000 196.96654
11307 Au 0 LAT Au 0 0.000 196.96654
11308 Au 0 LAT Au 0 0.000 196.96654
11309 Au 0 LAT Au 0 0.000 196.96654
11310 Au 0 LAT Au 0 0.000 196.96654
11311 Au 0 LAT Au 0 0.000 196.96654
11312 Au 0 LAT Au 0 0.000 196.96654
11313 Au 0 LAT Au 0 0.000 196.96654
11314 Au 0 LAT Au 0 0.000 196.96654
11315 Au 0 LAT Au 0 0.000 196.96654
11316 Au 0 LAT Au 0 0.000 196.96654
11317 Au 0 LAT Au 0 0.000 196.96654
11318 Au 0 LAT Au 0 0.000 196.96654
11319 Au 0 LAT Au 0 0.000 196.96654
11320 Au 0 LAT Au 0 0.000 196.96654
11321 Au 0 LAT Au 0 0.000 196.96654
11322 Au 0 LAT Au 0 0.000 196.96654
11323 Au 0 LAT Au 0 0.000 196.96654
11324 Au 0 LAT Au 0 0.000 196.96654
11325 Au 0 LAT Au 0 0.000 196.96654
11326 Au 0 LAT Au 0 0.000 196.96654
11327 Au 0 LAT Au 0 0.000 196.96654
11328 Au 0 LAT Au 0 0.000 196.96654
11329 Au 0 LAT Au 0 0.000 196.96654
11330 Au 0 LAT Au 0 0.000 196.96654
11331 Au 0 LAT Au 0 0.000 196.96654
11332 Au 0 LAT Au 0 0.000 196.96654
11333 Au 0 LAT Au 0 0.000 196.96654
11334 Au 0 LAT Au 0 0.000 196.96654
11335 Au 0 LAT Au 0 0.000 196.96654
11336 Au 0 LAT Au 0 0.000 196.96654
11337 Au 0 LAT Au 0 0.000 196.96654
11338 Au 0 LAT Au 0 0.000 196.96654
11339 Au 0 LAT Au 0 0.000 196.96654
11340 Au 0 LAT Au 0 0.000 196.96654
11341 Au 0 LAT Au 0 0.000 196.96654
11342 Au 0 LAT Au 0 0.000 196.96654
11343 Au 0 LAT Au 0 0.000 196.96654
11344 Au 0 LAT Au 0 0.000 196.96654
11345 Au 0 LAT Au 0 0.000 196.96654
11346 Au 0 LAT Au 0 0.000 196.96654
11347 Au 0 LAT Au 0 0.000 196.96654
11348 Au 0 LAT Au 0 0.000 196.96654
11349 Au 0 LAT Au 0 0.000 196.96654
11350 Au 0 LAT Au 0 0.000 196.96654
11351 Au 0 LAT Au 0 0.000 196.96654
11352 Au 0 LAT Au 0 0.000 196.96654
11353 Au 0 LAT Au 0 0.000 196.96654
11354 Au 0 LAT Au 0 0.000 196.96654
11355 Au 0 LAT Au 0 0.000 196.96654
11356 Au 0 LAT Au 0 0.000 196.96654
11357 Au 0 LAT Au 0 0.000 196.96654
11358 Au 0 LAT Au 0 0.000 196.96654
11359 Au 0 LAT Au 0 0.000 196.96654
11360 Au 0 LAT Au 0 0.000 196.96654
11361 Au 0 LAT Au 0 0.000 196.96654
11362 Au 0 LAT Au 0 0.000 196.96654
11363 Au 0 LAT Au 0 0.000 196.96654
11364 Au 0 LAT Au 0 0.000 196.96654
11365 Au 0 LAT Au 0 0.000 196.96654
11366 Au 0 LAT Au 0 0.000 196.96654
11367 Au 0 LAT Au 0 0.000 196.96654
11368 Au 0 LAT Au 0 0.000 196.96654
11369 Au 0 LAT Au 0 0.000 196.96654
11370 Au 0 LAT Au 0 0.000 196.96654
11371 Au 0 LAT Au 0 0.000 196.96654
11372 Au 0 LAT Au 0 0.000 196.96654
11373 Au 0 LAT Au 0 0.000 196.96654
11374 Au 0 LAT Au 0 0.000 196.96654
11375 Au 0 LAT Au 0 0.000 196.96654
11376 Au 0 LAT Au 0 0.000 196.96654
11377 Au 0 LAT Au 0 0.000 196.96654
11378 Au 0 LAT Au 0 0.000 196.96654
11379 Au 0 LAT Au 0 0.000 196.96654
11380 Au 0 LAT Au 0 0.000 196.96654
11381 Au 0 LAT Au 0 0.000 196.96654
11382 Au 0 LAT Au 0 0.000 196.96654
11383 Au 0 LAT Au 0 0.000 196.96654
11384 Au 0 LAT Au 0 0.000 196.96654
11385 Au 0 LAT Au 0 0.000 196.96654
11386 Au 0 LAT Au 0 0.000 196.96654
11387 Au 0 LAT Au 0 0.000 196.96654
11388 Au 0 LAT Au 0 0.000 196.96654
11389 Au 0 LAT Au 0 0.000 196.96654
11390 Au 0 LAT Au 0 0.000 196.96654
11391 Au 0 LAT Au 0 0.000 196.96654
11392 Au 0 LAT Au 0 0.000 196.96654
11393 Au 0 LAT Au 0 0.000 196.96654
11394 Au 0 LAT Au 0 0.000 196.96654
11395 Au 0 LAT Au 0 0.000 196.96654
11396 Au 0 LAT Au 0 0.000 196.96654
11397 Au 0 LAT Au 0 0.000 196.96654
11398 Au 0 LAT Au 0 0.000 196.96654
11399 Au 0 LAT Au 0 0.000 196.96654
11400 Au 0 LAT Au 0 0.000 196.96654
11401 Au 0 LAT Au 0 0.000 196.96654
11402 Au 0 LAT Au 0 0.000 196.96654
11403 Au 0 LAT Au 0 0.000 196.96654
11404 Au 0 LAT Au 0 0.000 196.96654
11405 Au 0 LAT Au 0 0.000 196.96654
11406 Au 0 LAT Au 0 0.000 196.96654
11407 Au 0 LAT Au 0 0.000 196.96654
11408 Au 0 LAT Au 0 0.000 196.96654
11409 Au 0 LAT Au 0 0.000 196.96654
11410 Au 0 LAT Au 0 0.000 196.96654
11411 Au 0 LAT Au 0 0.000 196.96654
11412 Au 0 LAT Au 0 0.000 196.96654
11413 Au 0 LAT Au 0 0.000 196.96654
11414 Au 0 LAT Au 0 0.000 196.96654
11415 Au 0 LAT Au 0 0.000 196.96654
11416 Au 0 LAT Au 0 0.000 196.96654
11417 Au 0 LAT Au 0 0.000 196.96654
11418 Au 0 LAT Au 0 0.000 196.96654
11419 Au 0 LAT Au 0 0.000 196.96654
11420 Au 0 LAT Au 0 0.000 196.96654
11421 Au 0 LAT Au 0 0.000 196.96654
11422 Au 0 LAT Au 0 0.000 196.96654
11423 Au 0 LAT Au 0 0.000 196.96654
11424 Au 0 LAT Au 0 0.000 196.96654
11425 Au 0 LAT Au 0 0.000 196.96654
11426 Au 0 LAT Au 0 0.000 196.96654
11427 Au 0 LAT Au 0 0.000 196.96654
11428 Au 0 LAT Au 0 0.000 196.96654
11429 Au 0 LAT Au 0 0.000 196.96654
11430 Au 0 LAT Au 0 0.000 196.96654
11431 Au 0 LAT Au 0 0.000 196.96654
11432 Au 0 LAT Au 0 0.000 196.96654
11433 Au 0 LAT Au 0 0.000 196.96654
11434 Au 0 LAT Au 0 0.000 196.96654
11435 Au 0 LAT Au 0 0.000 196.96654
11436 Au 0 LAT Au 0 0.000 196.96654
11437 Au 0 LAT Au 0 0.000 196.96654
11438 Au 0 LAT Au 0 0.000 196.96654
11439 Au 0 LAT Au 0 0.000 196.96654
11440 Au 0 LAT Au 0 0.000 196.96654
11441 Au 0 LAT Au 0 0.000 196.96654
11442 Au 0 LAT Au 0 0.000 196.96654
11443 Au 0 LAT Au 0 0.000 196.96654
11444 Au 0 LAT Au 0 0.000 196.96654
11445 Au 0 LAT Au 0 0.000 196.96654
11446 Au 0 LAT Au 0 0.000 196.96654
11447 Au 0 LAT Au 0 0.000 196.96654
11448 Au 0 LAT Au 0 0.000 196.96654
11449 Au 0 LAT Au 0 0.000 196.96654
11450 Au 0 LAT Au 0 0.000 196.96654
11451 Au 0 LAT Au 0 0.000 196.96654
11452 Au 0 LAT Au 0 0.000 196.96654
11453 Au 0 LAT Au 0 0.000 196.96654
11454 Au 0 LAT Au 0 0.000 196.96654
11455 Au 0 LAT Au 0 0.000 196.96654
11456 Au 0 LAT Au 0 0.000 196.96654
11457 Au 0 LAT Au 0 0.000 196.96654
11458 Au 0 LAT Au 0 0.000 196.96654
11459 Au 0 LAT Au 0 0.000 196.96654
11460 Au 0 LAT Au 0 0.000 196.96654
11461 Au 0 LAT Au 0 0.000 196.96654
11462 Au 0 LAT Au 0 0.000 196.96654
11463 Au 0 LAT Au 0 0.000 196.96654
11464 Au 0 LAT Au 0 0.000 196.96654
11465 Au 0 LAT Au 0 0.000 196.96654
11466 Au 0 LAT Au 0 0.000 196.96654
11467 Au 0 LAT Au 0 0.000 196.96654
11468 Au 0 LAT Au 0 0.000 196.96654
11469 Au 0 LAT Au 0 0.000 196.96654
11470 Au 0 LAT Au 0 0.000 196.96654
11471 Au 0 LAT Au 0 0.000 196.96654
11472 Au 0 LAT Au 0 0.000 196.96654
11473 Au 0 LAT Au 0 0.000 196.96654
11474 Au 0 LAT Au 0 0.000 196.96654
11475 Au 0 LAT Au 0 0.000 196.96654
11476 Au 0 LAT Au 0 0.000 196.96654
11477 Au 0 LAT Au 0 0.000 196.96654
11478 Au 0 LAT Au 0 0.000 196.96654
11479 Au 0 LAT Au 0 0.000 196.96654
11480 Au 0 LAT Au 0 0.000 196.96654
11481 Au 0 LAT Au 0 0.000 196.96654
11482 Au 0 LAT Au 0 0.000 196.96654
11483 Au 0 LAT Au 0 0.000 196.96654
11484 Au 0 LAT Au 0 0.000 196.96654
11485 Au 0 LAT Au 0 0.000 196.96654
11486 Au 0 LAT Au 0 0.000 196.96654
11487 Au 0 LAT Au 0 0.000 196.96654
11488 Au 0 LAT Au 0 0.000 196.96654
11489 Au 0 LAT Au 0 0.000 196.96654
11490 Au 0 LAT Au 0 0.000 196.96654
11491 Au 0 LAT Au 0 0.000 196.96654
11492 Au 0 LAT Au 0 0.000 196.96654
11493 Au 0 LAT Au 0 0.000 196.96654
11494 Au 0 LAT Au 0 0.000 196.96654
11495 Au 0 LAT Au 0 0.000 196.96654
11496 Au 0 LAT Au 0 0.000 196.96654
11497 Au 0 LAT Au 0 0.000 196.96654
11498 Au 0 LAT Au 0 0.000 196.96654
11499 Au 0 LAT Au 0 0.000 196.96654
11500 Au 0 LAT Au 0 0.000 196.96654
11501 Au 0 LAT Au 0 0.000 196.96654
11502 Au 0 LAT Au 0 0.000 196.96654
11503 Au 0 LAT Au 0 0.000 196.96654
11504 Au 0 LAT Au 0 0.000 196.96654
11505 Au 0 LAT Au 0 0.000 196.96654
11506 Au 0 LAT Au 0 0.000 196.96654
11507 Au 0 LAT Au 0 0.000 196.96654
11508 Au 0 LAT Au 0 0.000 196.96654
11509 Au 0 LAT Au 0 0.000 196.96654
11510 Au 0 LAT Au 0 0.000 196.96654
11511 Au 0 LAT Au 0 0.000 196.96654
11512 Au 0 LAT Au 0 0.000 196.96654
11513 Au 0 LAT Au 0 0.000 196.96654
11514 Au 0 LAT Au 0 0.000 196.96654
11515 Au 0 LAT Au 0 0.000 196.96654
11516 Au 0 LAT Au 0 0.000 196.96654
11517 Au 0 LAT Au 0 0.000 196.96654
11518 Au 0 LAT Au 0 0.000 196.96654
11519 Au 0 LAT Au 0 0.000 196.96654
11520 Au 0 LAT Au 0 0.000 196.96654
11521 Au 0 LAT Au 0 0.000 196.96654
11522 Au 0 LAT Au 0 0.000 196.96654
11523 Au 0 LAT Au 0 0.000 196.96654
11524 Au 0 LAT Au 0 0.000 196.96654
11525 Au 0 LAT Au 0 0.000 196.96654
11526 Au 0 LAT Au 0 0.000 196.96654
11527 Au 0 LAT Au 0 0.000 196.96654
11528 Au 0 LAT Au 0 0.000 196.96654
11529 Au 0 LAT Au 0 0.000 196.96654
11530 Au 0 LAT Au 0 0.000 196.96654
11531 Au 0 LAT Au 0 0.000 196.96654
11532 Au 0 LAT Au 0 0.000 196.96654
11533 Au 0 LAT Au 0 0.000 196.96654
11534 Au 0 LAT Au 0 0.000 196.96654
11535 Au 0 LAT Au 0 0.000 196.96654
11536 Au 0 LAT Au 0 0.000 196.96654
11537 Au 0 LAT Au 0 0.000 196.96654
11538 Au 0 LAT Au 0 0.000 196.96654
11539 Au 0 LAT Au 0 0.000 196.96654
11540 Au 0 LAT Au 0 0.000 196.96654
11541 Au 0 LAT Au 0 0.000 196.96654
11542 Au 0 LAT Au 0 0.000 196.96654
11543 Au 0 LAT Au 0 0.000 196.96654
11544 Au 0 LAT Au 0 0.000 196.96654
11545 Au 0 LAT Au 0 0.000 196.96654
11546 Au 0 LAT Au 0 0.000 196.96654
11547 Au 0 LAT Au 0 0.000 196.96654
11548 Au 0 LAT Au 0 0.000 196.96654
11549 Au 0 LAT Au 0 0.000 196.96654
11550 Au 0 LAT Au 0 0.000 196.96654
11551 Au 0 LAT Au 0 0.000 196.96654
11552 Au 0 LAT Au 0 0.000 196.96654
11553 Au 0 LAT Au 0 0.000 196.96654
11554 Au 0 LAT Au 0 0.000 196.96654
11555 Au 0 LAT Au 0 0.000 196.96654
11556 Au 0 LAT Au 0 0.000 196.96654
11557 Au 0 LAT Au 0 0.000 196.96654
11558 Au 0 LAT Au 0 0.000 196.96654
11559 Au 0 LAT Au 0 0.000 196.96654
11560 Au 0 LAT Au 0 0.000 196.96654
11561 Au 0 LAT Au 0 0.000 196.96654
11562 Au 0 LAT Au 0 0.000 196.96654
11563 Au 0 LAT Au 0 0.000 196.96654
11564 Au 0 LAT Au 0 0.000 196.96654
11565 Au 0 LAT Au 0 0.000 196.96654
11566 Au 0 LAT Au 0 0.000 196.96654
11567 Au 0 LAT Au 0 0.000 196.96654
11568 Au 0 LAT Au 0 0.000 196.96654
11569 Au 0 LAT Au 0 0.000 196.96654
11570 Au 0 LAT Au 0 0.000 196.96654
11571 Au 0 LAT Au 0 0.000 196.96654
11572 Au 0 LAT Au 0 0.000 196.96654
11573 Au 0 LAT Au 0 0.000 196.96654
11574 Au 0 LAT Au 0 0.000 196.96654
11575 Au 0 LAT Au 0 0.000 196.96654
11576 Au 0 LAT Au 0 0.000 196.96654
11577 Au 0 LAT Au 0 0.000 196.96654
11578 Au 0 LAT Au 0 0.000 196.96654
11579 Au 0 LAT Au 0 0.000 196.96654
11580 Au 0 LAT Au 0 0.000 196.96654
11581 Au 0 LAT Au 0 0.000 196.96654
11582 Au 0 LAT Au 0 0.000 196.96654
11583 Au 0 LAT Au 0 0.000 196.96654
11584 Au 0 LAT Au 0 0.000 196.96654
11585 Au 0 LAT Au 0 0.000 196.96654
11586 Au 0 LAT Au 0 0.000 196.96654
11587 Au 0 LAT Au 0 0.000 196.96654
11588 Au 0 LAT Au 0 0.000 196.96654
11589 Au 0 LAT Au 0 0.000 196.96654
11590 Au 0 LAT Au 0 0.000 196.96654
11591 Au 0 LAT Au 0 0.000 196.96654
11592 Au 0 LAT Au 0 0.000 196.96654
11593 Au 0 LAT Au 0 0.000 196.96654
11594 Au 0 LAT Au 0 0.000 196.96654
11595 Au 0 LAT Au 0 0.000 196.96654
11596 Au 0 LAT Au 0 0.000 196.96654
11597 Au 0 LAT Au 0 0.000 196.96654
11598 Au 0 LAT Au 0 0.000 196.96654
11599 Au 0 LAT Au 0 0.000 196.96654
11600 Au 0 LAT Au 0 0.000 196.96654
11601 Au 0 LAT Au 0 0.000 196.96654
11602 Au 0 LAT Au 0 0.000 196.96654
11603 Au 0 LAT Au 0 0.000 196.96654
11604 Au 0 LAT Au 0 0.000 196.96654
11605 Au 0 LAT Au 0 0.000 196.96654
11606 Au 0 LAT Au 0 0.000 196.96654
11607 Au 0 LAT Au 0 0.000 196.96654
11608 Au 0 LAT Au 0 0.000 196.96654
11609 Au 0 LAT Au 0 0.000 196.96654
11610 Au 0 LAT Au 0 0.000 196.96654
11611 Au 0 LAT Au 0 0.000 196.96654
11612 Au 0 LAT Au 0 0.000 196.96654
11613 Au 0 LAT Au 0 0.000 196.96654
11614 Au 0 LAT Au 0 0.000 196.96654
11615 Au 0 LAT Au 0 0.000 196.96654
11616 Au 0 LAT Au 0 0.000 196.96654
11617 Au 0 LAT Au 0 0.000 196.96654
11618 Au 0 LAT Au 0 0.000 196.96654
11619 Au 0 LAT Au 0 0.000 196.96654
11620 Au 0 LAT Au 0 0.000 196.96654
11621 Au 0 LAT Au 0 0.000 196.96654
11622 Au 0 LAT Au 0 0.000 196.96654
11623 Au 0 LAT Au 0 0.000 196.96654
11624 Au 0 LAT Au 0 0.000 196.96654
11625 Au 0 LAT Au 0 0.000 196.96654
11626 Au 0 LAT Au 0 0.000 196.96654
11627 Au 0 LAT Au 0 0.000 196.96654
11628 Au 0 LAT Au 0 0.000 196.96654
11629 Au 0 LAT Au 0 0.000 196.96654
11630 Au 0 LAT Au 0 0.000 196.96654
11631 Au 0 LAT Au 0 0.000 196.96654
11632 Au 0 LAT Au 0 0.000 196.96654
11633 Au 0 LAT Au 0 0.000 196.96654
11634 Au 0 LAT Au 0 0.000 196.96654
11635 Au 0 LAT Au 0 0.000 196.96654
11636 Au 0 LAT Au 0 0.000 196.96654
11637 Au 0 LAT Au 0 0.000 196.96654
11638 Au 0 LAT Au 0 0.000 196.96654
11639 Au 0 LAT Au 0 0.000 196.96654
11640 Au 0 LAT Au 0 0.000 196.96654
11641 Au 0 LAT Au 0 0.000 196.96654
11642 Au 0 LAT Au 0 0.000 196.96654
11643 Au 0 LAT Au 0 0.000 196.96654
11644 Au 0 LAT Au 0 0.000 196.96654
11645 Au 0 LAT Au 0 0.000 196.96654
11646 Au 0 LAT Au 0 0.000 196.96654
11647 Au 0 LAT Au 0 0.000 196.96654
11648 Au 0 LAT Au 0 0.000 196.96654
11649 Au 0 LAT Au 0 0.000 196.96654
11650 Au 0 LAT Au 0 0.000 196.96654
11651 Au 0 LAT Au 0 0.000 196.96654
11652 Au 0 LAT Au 0 0.000 196.96654
11653 Au 0 LAT Au 0 0.000 196.96654
11654 Au 0 LAT Au 0 0.000 196.96654
11655 Au 0 LAT Au 0 0.000 196.96654
11656 Au 0 LAT Au 0 0.000 196.96654
11657 Au 0 LAT Au 0 0.000 196.96654
11658 Au 0 LAT Au 0 0.000 196.96654
11659 Au 0 LAT Au 0 0.000 196.96654
11660 Au 0 LAT Au 0 0.000 196.96654
11661 Au 0 LAT Au 0 0.000 196.96654
11662 Au 0 LAT Au 0 0.000 196.96654
11663 Au 0 LAT Au 0 0.000 196.96654
11664 Au 0 LAT Au 0 0.000 196.96654
11665 Au 0 LAT Au 0 0.000 196.96654
11666 Au 0 LAT Au 0 0.000 196.96654
11667 Au 0 LAT Au 0 0.000 196.96654
11668 Au 0 LAT Au 0 0.000 196.96654
11669 Au 0 LAT Au 0 0.000 196.96654
11670 Au 0 LAT Au 0 0.000 196.96654
11671 Au 0 LAT Au 0 0.000 196.96654
11672 Au 0 LAT Au 0 0.000 196.96654
11673 Au 0 LAT Au 0 0.000 196.96654
11674 Au 0 LAT Au 0 0.000 196.96654
11675 Au 0 LAT Au 0 0.000 196.96654
11676 Au 0 LAT Au 0 0.000 196.96654
11677 Au 0 LAT Au 0 0.000 196.96654
11678 Au 0 LAT Au 0 0.000 196.96654
11679 Au 0 LAT Au 0 0.000 196.96654
11680 Au 0 LAT Au 0 0.000 196.96654
11681 Au 0 LAT Au 0 0.000 196.96654
11682 Au 0 LAT Au 0 0.000 196.96654
11683 Au 0 LAT Au 0 0.000 196.96654
11684 Au 0 LAT Au 0 0.000 196.96654
11685 Au 0 LAT Au 0 0.000 196.96654
11686 Au 0 LAT Au 0 0.000 196.96654
11687 Au 0 LAT Au 0 0.000 196.96654
11688 Au 0 LAT Au 0 0.000 196.96654
11689 Au 0 LAT Au 0 0.000 196.96654
11690 Au 0 LAT Au 0 0.000 196.96654
11691 Au 0 LAT Au 0 0.000 196.96654
11692 Au 0 LAT Au 0 0.000 196.96654
11693 Au 0 LAT Au 0 0.000 196.96654
11694 Au 0 LAT Au 0 0.000 196.96654
11695 Au 0 LAT Au 0 0.000 196.96654
11696 Au 0 LAT Au 0 0.000 196.96654
11697 Au 0 LAT Au 0 0.000 196.96654
11698 Au 0 LAT Au 0 0.000 196.96654
11699 Au 0 LAT Au 0 0.000 196.96654
11700 Au 0 LAT Au 0 0.000 196.96654
11701 Au 0 LAT Au 0 0.000 196.96654
11702 Au 0 LAT Au 0 0.000 196.96654
11703 Au 0 LAT Au 0 0.000 196.96654
11704 Au 0 LAT Au 0 0.000 196.96654
11705 Au 0 LAT Au 0 0.000 196.96654
11706 Au 0 LAT Au 0 0.000 196.96654
11707 Au 0 LAT Au 0 0.000 196.96654
11708 Au 0 LAT Au 0 0.000 196.96654
11709 Au 0 LAT Au 0 0.000 196.96654
11710 Au 0 LAT Au 0 0.000 196.96654
11711 Au 0 LAT Au 0 0.000 196.96654
11712 Au 0 LAT Au 0 0.000 196.96654
11713 Au 0 LAT Au 0 0.000 196.96654
11714 Au 0 LAT Au 0 0.000 196.96654
11715 Au 0 LAT Au 0 0.000 196.96654
11716 Au 0 LAT Au 0 0.000 196.96654
11717 Au 0 LAT Au 0 0.000 196.96654
11718 Au 0 LAT Au 0 0.000 196.96654
11719 Au 0 LAT Au 0 0.000 196.96654
11720 Au 0 LAT Au 0 0.000 196.96654
11721 Au 0 LAT Au 0 0.000 196.96654
11722 Au 0 LAT Au 0 0.000 196.96654
11723 Au 0 LAT Au 0 0.000 196.96654
11724 Au 0 LAT Au 0 0.000 196.96654
11725 Au 0 LAT Au 0 0.000 196.96654
11726 Au 0 LAT Au 0 0.000 196.96654
11727 Au 0 LAT Au 0 0.000 196.96654
11728 Au 0 LAT Au 0 0.000 196.96654
11729 Au 0 LAT Au 0 0.000 196.96654
11730 Au 0 LAT Au 0 0.000 196.96654
11731 Au 0 LAT Au 0 0.000 196.96654
11732 Au 0 LAT Au 0 0.000 196.96654
11733 Au 0 LAT Au 0 0.000 196.96654
11734 Au 0 LAT Au 0 0.000 196.96654
11735 Au 0 LAT Au 0 0.000 196.96654
11736 Au 0 LAT Au 0 0.000 196.96654
11737 Au 0 LAT Au 0 0.000 196.96654
11738 Au 0 LAT Au 0 0.000 196.96654
11739 Au 0 LAT Au 0 0.000 196.96654
11740 Au 0 LAT Au 0 0.000 196.96654
11741 Au 0 LAT Au 0 0.000 196.96654
11742 Au 0 LAT Au 0 0.000 196.96654
11743 Au 0 LAT Au 0 0.000 196.96654
11744 Au 0 LAT Au 0 0.000 196.96654
11745 Au 0 LAT Au 0 0.000 196.96654
11746 Au 0 LAT Au 0 0.000 196.96654
11747 Au 0 LAT Au 0 0.000 196.96654
11748 Au 0 LAT Au 0 0.000 196.96654
11749 Au 0 LAT Au 0 0.000 196.96654
11750 Au 0 LAT Au 0 0.000 196.96654
11751 Au 0 LAT Au 0 0.000 196.96654
11752 Au 0 LAT Au 0 0.000 196.96654
11753 Au 0 LAT Au 0 0.000 196.96654
11754 Au 0 LAT Au 0 0.000 196.96654
11755 Au 0 LAT Au 0 0.000 196.96654
11756 Au 0 LAT Au 0 0.000 196.96654
11757 Au 0 LAT Au 0 0.000 196.96654
11758 Au 0 LAT Au 0 0.000 196.96654
11759 Au 0 LAT Au 0 0.000 196.96654
11760 Au 0 LAT Au 0 0.000 196.96654
11761 Au 0 LAT Au 0 0.000 196.96654
11762 Au 0 LAT Au 0 0.000 196.96654
11763 Au 0 LAT Au 0 0.000 196.96654
11764 Au 0 LAT Au 0 0.000 196.96654
11765 Au 0 LAT Au 0 0.000 196.96654
11766 Au 0 LAT Au 0 0.000 196.96654
11767 Au 0 LAT Au 0 0.000 196.96654
11768 Au 0 LAT Au 0 0.000 196.96654
11769 Au 0 LAT Au 0 0.000 196.96654
11770 Au 0 LAT Au 0 0.000 196.96654
11771 Au 0 LAT Au 0 0.000 196.96654
11772 Au 0 LAT Au 0 0.000 196.96654
11773 Au 0 LAT Au 0 0.000 196.96654
11774 Au 0 LAT Au 0 0.000 196.96654
11775 Au 0 LAT Au 0 0.000 196.96654
11776 Au 0 LAT Au 0 0.000 196.96654
11777 Au 0 LAT Au 0 0.000 196.96654
11778 Au 0 LAT Au 0 0.000 196.96654
11779 Au 0 LAT Au 0 0.000 196.96654
11780 Au 0 LAT Au 0 0.000 196.96654
11781 Au 0 LAT Au 0 0.000 196.96654
11782 Au 0 LAT Au 0 0.000 196.96654
11783 Au 0 LAT Au 0 0.000 196.96654
11784 Au 0 LAT Au 0 0.000 196.96654
11785 Au 0 LAT Au 0 0.000 196.96654
11786 Au 0 LAT Au 0 0.000 196.96654
11787 Au 0 LAT Au 0 0.000 196.96654
11788 Au 0 LAT Au 0 0.000 196.96654
11789 Au 0 LAT Au 0 0.000 196.96654
11790 Au 0 LAT Au 0 0.000 196.96654
11791 Au 0 LAT Au 0 0.000 196.96654
11792 Au 0 LAT Au 0 0.000 196.96654
11793 Au 0 LAT Au 0 0.000 196.96654
11794 Au 0 LAT Au 0 0.000 196.96654
11795 Au 0 LAT Au 0 0.000 196.96654
11796 Au 0 LAT Au 0 0.000 196.96654
11797 Au 0 LAT Au 0 0.000 196.96654
11798 Au 0 LAT Au 0 0.000 196.96654
11799 Au 0 LAT Au 0 0.000 196.96654
11800 Au 0 LAT Au 0 0.000 196.96654
11801 Au 0 LAT Au 0 0.000 196.96654
11802 Au 0 LAT Au 0 0.000 196.96654
11803 Au 0 LAT Au 0 0.000 196.96654
11804 Au 0 LAT Au 0 0.000 196.96654
11805 Au 0 LAT Au 0 0.000 196.96654
11806 Au 0 LAT Au 0 0.000 196.96654
11807 Au 0 LAT Au 0 0.000 196.96654
11808 Au 0 LAT Au 0 0.000 196.96654
11809 Au 0 LAT Au 0 0.000 196.96654
11810 Au 0 LAT Au 0 0.000 196.96654
11811 Au 0 LAT Au 0 0.000 196.96654
11812 Au 0 LAT Au 0 0.000 196.96654
11813 Au 0 LAT Au 0 0.000 196.96654
11814 Au 0 LAT Au 0 0.000 196.96654
11815 Au 0 LAT Au 0 0.000 196.96654
11816 Au 0 LAT Au 0 0.000 196.96654
11817 Au 0 LAT Au 0 0.000 196.96654
11818 Au 0 LAT Au 0 0.000 196.96654
11819 Au 0 LAT Au 0 0.000 196.96654
11820 Au 0 LAT Au 0 0.000 196.96654
11821 Au 0 LAT Au 0 0.000 196.96654
11822 Au 0 LAT Au 0 0.000 196.96654
11823 Au 0 LAT Au 0 0.000 196.96654
11824 Au 0 LAT Au 0 0.000 196.96654
11825 Au 0 LAT Au 0 0.000 196.96654
11826 Au 0 LAT Au 0 0.000 196.96654
11827 Au 0 LAT Au 0 0.000 196.96654
11828 Au 0 LAT Au 0 0.000 196.96654
11829 Au 0 LAT Au 0 0.000 196.96654
11830 Au 0 LAT Au 0 0.000 196.96654
11831 Au 0 LAT Au 0 0.000 196.96654
11832 Au 0 LAT Au 0 0.000 196.96654
11833 Au 0 LAT Au 0 0.000 196.96654
11834 Au 0 LAT Au 0 0.000 196.96654
11835 Au 0 LAT Au 0 0.000 196.96654
11836 Au 0 LAT Au 0 0.000 196.96654
11837 Au 0 LAT Au 0 0.000 196.96654
11838 Au 0 LAT Au 0 0.000 196.96654
11839 Au 0 LAT Au 0 0.000 196.96654
11840 Au 0 LAT Au 0 0.000 196.96654
11841 Au 0 LAT Au 0 0.000 196.96654
11842 Au 0 LAT Au 0 0.000 196.96654
11843 Au 0 LAT Au 0 0.000 196.96654
11844 Au 0 LAT Au 0 0.000 196.96654
11845 Au 0 LAT Au 0 0.000 196.96654
11846 Au 0 LAT Au 0 0.000 196.96654
11847 Au 0 LAT Au 0 0.000 196.96654
11848 Au 0 LAT Au 0 0.000 196.96654
11849 Au 0 LAT Au 0 0.000 196.96654
11850 Au 0 LAT Au 0 0.000 196.96654
11851 Au 0 LAT Au 0 0.000 196.96654
11852 Au 0 LAT Au 0 0.000 196.96654
11853 Au 0 LAT Au 0 0.000 196.96654
11854 Au 0 LAT Au 0 0.000 196.96654
11855 Au 0 LAT Au 0 0.000 196.96654
11856 Au 0 LAT Au 0 0.000 196.96654
11857 Au 0 LAT Au 0 0.000 196.96654
11858 Au 0 LAT Au 0 0.000 196.96654
11859 Au 0 LAT Au 0 0.000 196.96654
11860 Au 0 LAT Au 0 0.000 196.96654
11861 Au 0 LAT Au 0 0.000 196.96654
11862 Au 0 LAT Au 0 0.000 196.96654
11863 Au 0 LAT Au 0 0.000 196.96654
11864 Au 0 LAT Au 0 0.000 196.96654
11865 Au 0 LAT Au 0 0.000 196.96654
11866 Au 0 LAT Au 0 0.000 196.96654
11867 Au 0 LAT Au 0 0.000 196.96654
11868 Au 0 LAT Au 0 0.000 196.96654
11869 Au 0 LAT Au 0 0.000 196.96654
11870 Au 0 LAT Au 0 0.000 196.96654
11871 Au 0 LAT Au 0 0.000 196.96654
11872 Au 0 LAT Au 0 0.000 196.96654
11873 Au 0 LAT Au 0 0.000 196.96654
11874 Au 0 LAT Au 0 0.000 196.96654
11875 Au 0 LAT Au 0 0.000 196.96654
11876 Au 0 LAT Au 0 0.000 196.96654
11877 Au 0 LAT Au 0 0.000 196.96654
11878 Au 0 LAT Au 0 0.000 196.96654
11879 Au 0 LAT Au 0 0.000 196.96654
11880 Au 0 LAT Au 0 0.000 196.96654
11881 Au 0 LAT Au 0 0.000 196.96654
11882 Au 0 LAT Au 0 0.000 196.96654
11883 Au 0 LAT Au 0 0.000 196.96654
11884 Au 0 LAT Au 0 0.000 196.96654
11885 Au 0 LAT Au 0 0.000 196.96654
11886 Au 0 LAT Au 0 0.000 196.96654
11887 Au 0 LAT Au 0 0.000 196.96654
11888 Au 0 LAT Au 0 0.000 196.96654
11889 Au 0 LAT Au 0 0.000 196.96654
11890 Au 0 LAT Au 0 0.000 196.96654
11891 Au 0 LAT Au 0 0.000 196.96654
11892 Au 0 LAT Au 0 0.000 196.96654
11893 Au 0 LAT Au 0 0.000 196.96654
11894 Au 0 LAT Au 0 0.000 196.96654
11895 Au 0 LAT Au 0 0.000 196.96654
11896 Au 0 LAT Au 0 0.000 196.96654
11897 Au 0 LAT Au 0 0.000 196.96654
11898 Au 0 LAT Au 0 0.000 196.96654
11899 Au 0 LAT Au 0 0.000 196.96654
11900 Au 0 LAT Au 0 0.000 196.96654
11901 Au 0 LAT Au 0 0.000 196.96654
11902 Au 0 LAT Au 0 0.000 196.96654
11903 Au 0 LAT Au 0 0.000 196.96654
11904 Au 0 LAT Au 0 0.000 196.96654
11905 Au 0 LAT Au 0 0.000 196.96654
11906 Au 0 LAT Au 0 0.000 196.96654
11907 Au 0 LAT Au 0 0.000 196.96654
11908 Au 0 LAT Au 0 0.000 196.96654
11909 Au 0 LAT Au 0 0.000 196.96654
11910 Au 0 LAT Au 0 0.000 196.96654
11911 Au 0 LAT Au 0 0.000 196.96654
11912 Au 0 LAT Au 0 0.000 196.96654
11913 Au 0 LAT Au 0 0.000 196.96654
11914 Au 0 LAT Au 0 0.000 196.96654
11915 Au 0 LAT Au 0 0.000 196.96654
11916 Au 0 LAT Au 0 0.000 196.96654
11917 Au 0 LAT Au 0 0.000 196.96654
11918 Au 0 LAT Au 0 0.000 196.96654
11919 Au 0 LAT Au 0 0.000 196.96654
11920 Au 0 LAT Au 0 0.000 196.96654
11921 Au 0 LAT Au 0 0.000 196.96654
11922 Au 0 LAT Au 0 0.000 196.96654
11923 Au 0 LAT Au 0 0.000 196.96654
11924 Au 0 LAT Au 0 0.000 196.96654
11925 Au 0 LAT Au 0 0.000 196.96654
11926 Au 0 LAT Au 0 0.000 196.96654
11927 Au 0 LAT Au 0 0.000 196.96654
11928 Au 0 LAT Au 0 0.000 196.96654
11929 Au 0 LAT Au 0 0.000 196.96654
11930 Au 0 LAT Au 0 0.000 196.96654
11931 Au 0 LAT Au 0 0.000 196.96654
11932 Au 0 LAT Au 0 0.000 196.96654
11933 Au 0 LAT Au 0 0.000 196.96654
11934 Au 0 LAT Au 0 0.000 196.96654
11935 Au 0 LAT Au 0 0.000 196.96654
11936 Au 0 LAT Au 0 0.000 196.96654
11937 Au 0 LAT Au 0 0.000 196.96654
11938 Au 0 LAT Au 0 0.000 196.96654
11939 Au 0 LAT Au 0 0.000 196.96654
11940 Au 0 LAT Au 0 0.000 196.96654
11941 Au 0 LAT Au 0 0.000 196.96654
11942 Au 0 LAT Au 0 0.000 196.96654
11943 Au 0 LAT Au 0 0.000 196.96654
11944 Au 0 LAT Au 0 0.000 196.96654
11945 Au 0 LAT Au 0 0.000 196.96654
11946 Au 0 LAT Au 0 0.000 196.96654
11947 Au 0 LAT Au 0 0.000 196.96654
11948 Au 0 LAT Au 0 0.000 196.96654
11949 Au 0 LAT Au 0 0.000 196.96654
11950 Au 0 LAT Au 0 0.000 196.96654
11951 Au 0 LAT Au 0 0.000 196.96654
11952 Au 0 LAT Au 0 0.000 196.96654
11953 Au 0 LAT Au 0 0.000 196.96654
11954 Au 0 LAT Au 0 0.000 196.96654
11955 Au 0 LAT Au 0 0.000 196.96654
11956 Au 0 LAT Au 0 0.000 196.96654
11957 Au 0 LAT Au 0 0.000 196.96654
11958 Au 0 LAT Au 0 0.000 196.96654
11959 Au 0 LAT Au 0 0.000 196.96654
11960 Au 0 LAT Au 0 0.000 196.96654
11961 Au 0 LAT Au 0 0.000 196.96654
11962 Au 0 LAT Au 0 0.000 196.96654
11963 Au 0 LAT Au 0 0.000 196.96654
11964 Au 0 LAT Au 0 0.000 196.96654
11965 Au 0 LAT Au 0 0.000 196.96654
11966 Au 0 LAT Au 0 0.000 196.96654
11967 Au 0 LAT Au 0 0.000 196.96654
11968 Au 0 LAT Au 0 0.000 196.96654
11969 Au 0 LAT Au 0 0.000 196.96654
11970 Au 0 LAT Au 0 0.000 196.96654
11971 Au 0 LAT Au 0 0.000 196.96654
11972 Au 0 LAT Au 0 0.000 196.96654
11973 Au 0 LAT Au 0 0.000 196.96654
11974 Au 0 LAT Au 0 0.000 196.96654
11975 Au 0 LAT Au 0 0.000 196.96654
11976 Au 0 LAT Au 0 0.000 196.96654
11977 Au 0 LAT Au 0 0.000 196.96654
11978 Au 0 LAT Au 0 0.000 196.96654
11979 Au 0 LAT Au 0 0.000 196.96654
11980 Au 0 LAT Au 0 0.000 196.96654
11981 Au 0 LAT Au 0 0.000 196.96654
11982 Au 0 LAT Au 0 0.000 196.96654
11983 Au 0 LAT Au 0 0.000 196.96654
11984 Au 0 LAT Au 0 0.000 196.96654
11985 Au 0 LAT Au 0 0.000 196.96654
11986 Au 0 LAT Au 0 0.000 196.96654
11987 Au 0 LAT Au 0 0.000 196.96654
11988 Au 0 LAT Au 0 0.000 196.96654
11989 Au 0 LAT Au 0 0.000 196.96654
11990 Au 0 LAT Au 0 0.000 196.96654
11991 Au 0 LAT Au 0 0.000 196.96654
11992 Au 0 LAT Au 0 0.000 196.96654
11993 Au 0 LAT Au 0 0.000 196.96654
11994 Au 0 LAT Au 0 0.000 196.96654
11995 Au 0 LAT Au 0 0.000 196.96654
11996 Au 0 LAT Au 0 0.000 196.96654
11997 Au 0 LAT Au 0 0.000 196.96654
11998 Au 0 LAT Au 0 0.000 196.96654
11999 Au 0 LAT Au 0 0.000 196.96654
12000 Au 0 LAT Au 0 0.000 196.96654
12001 Au 0 LAT Au 0 0.000 196.96654
12002 Au 0 LAT Au 0 0.000 196.96654
12003 Au 0 LAT Au 0 0.000 196.96654
12004 Au 0 LAT Au 0 0.000 196.96654
12005 Au 0 LAT Au 0 0.000 196.96654
12006 Au 0 LAT Au 0 0.000 196.96654
12007 Au 0 LAT Au 0 0.000 196.96654
12008 Au 0 LAT Au 0 0.000 196.96654
12009 Au 0 LAT Au 0 0.000 196.96654
12010 Au 0 LAT Au 0 0.000 196.96654
12011 Au 0 LAT Au 0 0.000 196.96654
12012 Au 0 LAT Au 0 0.000 196.96654
12013 Au 0 LAT Au 0 0.000 196.96654
12014 Au 0 LAT Au 0 0.000 196.96654
12015 Au 0 LAT Au 0 0.000 196.96654
12016 Au 0 LAT Au 0 0.000 196.96654
12017 Au 0 LAT Au 0 0.000 196.96654
12018 Au 0 LAT Au 0 0.000 196.96654
12019 Au 0 LAT Au 0 0.000 196.96654
12020 Au 0 LAT Au 0 0.000 196.96654
12021 Au 0 LAT Au 0 0.000 196.96654
12022 Au 0 LAT Au 0 0.000 196.96654
12023 Au 0 LAT Au 0 0.000 196.96654
12024 Au 0 LAT Au 0 0.000 196.96654
12025 Au 0 LAT Au 0 0.000 196.96654
12026 Au 0 LAT Au 0 0.000 196.96654
12027 Au 0 LAT Au 0 0.000 196.96654
12028 Au 0 LAT Au 0 0.000 196.96654
12029 Au 0 LAT Au 0 0.000 196.96654
12030 Au 0 LAT Au 0 0.000 196.96654
12031 Au 0 LAT Au 0 0.000 196.96654
12032 Au 0 LAT Au 0 0.000 196.96654
12033 Au 0 LAT Au 0 0.000 196.96654
12034 Au 0 LAT Au 0 0.000 196.96654
12035 Au 0 LAT Au 0 0.000 196.96654
12036 Au 0 LAT Au 0 0.000 196.96654
12037 Au 0 LAT Au 0 0.000 196.96654
12038 Au 0 LAT Au 0 0.000 196.96654
12039 Au 0 LAT Au 0 0.000 196.96654
12040 Au 0 LAT Au 0 0.000 196.96654
12041 Au 0 LAT Au 0 0.000 196.96654
12042 Au 0 LAT Au 0 0.000 196.96654
12043 Au 0 LAT Au 0 0.000 196.96654
12044 Au 0 LAT Au 0 0.000 196.96654
12045 Au 0 LAT Au 0 0.000 196.96654
12046 Au 0 LAT Au 0 0.000 196.96654
12047 Au 0 LAT Au 0 0.000 196.96654
12048 Au 0 LAT Au 0 0.000 196.96654
12049 Au 0 LAT Au 0 0.000 196.96654
12050 Au 0 LAT Au 0 0.000 196.96654
12051 Au 0 LAT Au 0 0.000 196.96654
12052 Au 0 LAT Au 0 0.000 196.96654
12053 Au 0 LAT Au 0 0.000 196.96654
12054 Au 0 LAT Au 0 0.000 196.96654
12055 Au 0 LAT Au 0 0.000 196.96654
12056 Au 0 LAT Au 0 0.000 196.96654
12057 Au 0 LAT Au 0 0.000 196.96654
12058 Au 0 LAT Au 0 0.000 196.96654
12059 Au 0 LAT Au 0 0.000 196.96654
12060 Au 0 LAT Au 0 0.000 196.96654
12061 Au 0 LAT Au 0 0.000 196.96654
12062 Au 0 LAT Au 0 0.000 196.96654
12063 Au 0 LAT Au 0 0.000 196.96654
12064 Au 0 LAT Au 0 0.000 196.96654
12065 Au 0 LAT Au 0 0.000 196.96654
12066 Au 0 LAT Au 0 0.000 196.96654
12067 Au 0 LAT Au 0 0.000 196.96654
12068 Au 0 LAT Au 0 0.000 196.96654
12069 Au 0 LAT Au 0 0.000 196.96654
12070 Au 0 LAT Au 0 0.000 196.96654
12071 Au 0 LAT Au 0 0.000 196.96654
12072 Au 0 LAT Au 0 0.000 196.96654
12073 Au 0 LAT Au 0 0.000 196.96654
12074 Au 0 LAT Au 0 0.000 196.96654
12075 Au 0 LAT Au 0 0.000 196.96654
12076 Au 0 LAT Au 0 0.000 196.96654
12077 Au 0 LAT Au 0 0.000 196.96654
12078 Au 0 LAT Au 0 0.000 196.96654
12079 Au 0 LAT Au 0 0.000 196.96654
12080 Au 0 LAT Au 0 0.000 196.96654
12081 Au 0 LAT Au 0 0.000 196.96654
12082 Au 0 LAT Au 0 0.000 196.96654
12083 Au 0 LAT Au 0 0.000 196.96654
12084 Au 0 LAT Au 0 0.000 196.96654
12085 Au 0 LAT Au 0 0.000 196.96654
12086 Au 0 LAT Au 0 0.000 196.96654
12087 Au 0 LAT Au 0 0.000 196.96654
12088 Au 0 LAT Au 0 0.000 196.96654
12089 Au 0 LAT Au 0 0.000 196.96654
12090 Au 0 LAT Au 0 0.000 196.96654
12091 Au 0 LAT Au 0 0.000 196.96654
12092 Au 0 LAT Au 0 0.000 196.96654
12093 Au 0 LAT Au 0 0.000 196.96654
12094 Au 0 LAT Au 0 0.000 196.96654
12095 Au 0 LAT Au 0 0.000 196.96654
12096 Au 0 LAT Au 0 0.000 196.96654
12097 Au 0 LAT Au 0 0.000 196.96654
12098 Au 0 LAT Au 0 0.000 196.96654
12099 Au 0 LAT Au 0 0.000 196.96654
12100 Au 0 LAT Au 0 0.000 196.96654
12101 Au 0 LAT Au 0 0.000 196.96654
12102 Au 0 LAT Au 0 0.000 196.96654
12103 Au 0 LAT Au 0 0.000 196.96654
12104 Au 0 LAT Au 0 0.000 196.96654
12105 Au 0 LAT Au 0 0.000 196.96654
12106 Au 0 LAT Au 0 0.000 196.96654
12107 Au 0 LAT Au 0 0.000 196.96654
12108 Au 0 LAT Au 0 0.000 196.96654
12109 Au 0 LAT Au 0 0.000 196.96654
12110 Au 0 LAT Au 0 0.000 196.96654
12111 Au 0 LAT Au 0 0.000 196.96654
12112 Au 0 LAT Au 0 0.000 196.96654
12113 Au 0 LAT Au 0 0.000 196.96654
12114 Au 0 LAT Au 0 0.000 196.96654
12115 Au 0 LAT Au 0 0.000 196.96654
12116 Au 0 LAT Au 0 0.000 196.96654
12117 Au 0 LAT Au 0 0.000 196.96654
12118 Au 0 LAT Au 0 0.000 196.96654
12119 Au 0 LAT Au 0 0.000 196.96654
12120 Au 0 LAT Au 0 0.000 196.96654
12121 Au 0 LAT Au 0 0.000 196.96654
12122 Au 0 LAT Au 0 0.000 196.96654
12123 Au 0 LAT Au 0 0.000 196.96654
12124 Au 0 LAT Au 0 0.000 196.96654
12125 Au 0 LAT Au 0 0.000 196.96654
12126 Au 0 LAT Au 0 0.000 196.96654
12127 Au 0 LAT Au 0 0.000 196.96654
12128 Au 0 LAT Au 0 0.000 196.96654
12129 Au 0 LAT Au 0 0.000 196.96654
12130 Au 0 LAT Au 0 0.000 196.96654
12131 Au 0 LAT Au 0 0.000 196.96654
12132 Au 0 LAT Au 0 0.000 196.96654
12133 Au 0 LAT Au 0 0.000 196.96654
12134 Au 0 LAT Au 0 0.000 196.96654
12135 Au 0 LAT Au 0 0.000 196.96654
12136 Au 0 LAT Au 0 0.000 196.96654
12137 Au 0 LAT Au 0 0.000 196.96654
12138 Au 0 LAT Au 0 0.000 196.96654
12139 Au 0 LAT Au 0 0.000 196.96654
12140 Au 0 LAT Au 0 0.000 196.96654
12141 Au 0 LAT Au 0 0.000 196.96654
12142 Au 0 LAT Au 0 0.000 196.96654
12143 Au 0 LAT Au 0 0.000 196.96654
12144 Au 0 LAT Au 0 0.000 196.96654
12145 Au 0 LAT Au 0 0.000 196.96654
12146 Au 0 LAT Au 0 0.000 196.96654
12147 Au 0 LAT Au 0 0.000 196.96654
12148 Au 0 LAT Au 0 0.000 196.96654
12149 Au 0 LAT Au 0 0.000 196.96654
12150 Au 0 LAT Au 0 0.000 196.96654
12151 Au 0 LAT Au 0 0.000 196.96654
12152 Au 0 LAT Au 0 0.000 196.96654
12153 Au 0 LAT Au 0 0.000 196.96654
12154 Au 0 LAT Au 0 0.000 196.96654
12155 Au 0 LAT Au 0 0.000 196.96654
12156 Au 0 LAT Au 0 0.000 196.96654
12157 Au 0 LAT Au 0 0.000 196.96654
12158 Au 0 LAT Au 0 0.000 196.96654
12159 Au 0 LAT Au 0 0.000 196.96654
12160 Au 0 LAT Au 0 0.000 196.96654
12161 Au 0 LAT Au 0 0.000 196.96654
12162 Au 0 LAT Au 0 0.000 196.96654
12163 Au 0 LAT Au 0 0.000 196.96654
12164 Au 0 LAT Au 0 0.000 196.96654
12165 Au 0 LAT Au 0 0.000 196.96654
12166 Au 0 LAT Au 0 0.000 196.96654
12167 Au 0 LAT Au 0 0.000 196.96654
12168 Au 0 LAT Au 0 0.000 196.96654
12169 Au 0 LAT Au 0 0.000 196.96654
12170 Au 0 LAT Au 0 0.000 196.96654
12171 Au 0 LAT Au 0 0.000 196.96654
12172 Au 0 LAT Au 0 0.000 196.96654
12173 Au 0 LAT Au 0 0.000 196.96654
12174 Au 0 LAT Au 0 0.000 196.96654
12175 Au 0 LAT Au 0 0.000 196.96654
12176 Au 0 LAT Au 0 0.000 196.96654
12177 Au 0 LAT Au 0 0.000 196.96654
12178 Au 0 LAT Au 0 0.000 196.96654
12179 Au 0 LAT Au 0 0.000 196.96654
12180 Au 0 LAT Au 0 0.000 196.96654
12181 Au 0 LAT Au 0 0.000 196.96654
12182 Au 0 LAT Au 0 0.000 196.96654
12183 Au 0 LAT Au 0 0.000 196.96654
12184 Au 0 LAT Au 0 0.000 196.96654
12185 Au 0 LAT Au 0 0.000 196.96654
12186 Au 0 LAT Au 0 0.000 196.96654
12187 Au 0 LAT Au 0 0.000 196.96654
12188 Au 0 LAT Au 0 0.000 196.96654
12189 Au 0 LAT Au 0 0.000 196.96654
12190 Au 0 LAT Au 0 0.000 196.96654
12191 Au 0 LAT Au 0 0.000 196.96654
12192 Au 0 LAT Au 0 0.000 196.96654
12193 Au 0 LAT Au 0 0.000 196.96654
12194 Au 0 LAT Au 0 0.000 196.96654
12195 Au 0 LAT Au 0 0.000 196.96654
12196 Au 0 LAT Au 0 0.000 196.96654
12197 Au 0 LAT Au 0 0.000 196.96654
12198 Au 0 LAT Au 0 0.000 196.96654
12199 Au 0 LAT Au 0 0.000 196.96654
12200 Au 0 LAT Au 0 0.000 196.96654
12201 Au 0 LAT Au 0 0.000 196.96654
12202 Au 0 LAT Au 0 0.000 196.96654
12203 Au 0 LAT Au 0 0.000 196.96654
12204 Au 0 LAT Au 0 0.000 196.96654
12205 Au 0 LAT Au 0 0.000 196.96654
12206 Au 0 LAT Au 0 0.000 196.96654
12207 Au 0 LAT Au 0 0.000 196.96654
12208 Au 0 LAT Au 0 0.000 196.96654
12209 Au 0 LAT Au 0 0.000 196.96654
12210 Au 0 LAT Au 0 0.000 196.96654
12211 Au 0 LAT Au 0 0.000 196.96654
12212 Au 0 LAT Au 0 0.000 196.96654
12213 Au 0 LAT Au 0 0.000 196.96654
12214 Au 0 LAT Au 0 0.000 196.96654
12215 Au 0 LAT Au 0 0.000 196.96654
12216 Au 0 LAT Au 0 0.000 196.96654
12217 Au 0 LAT Au 0 0.000 196.96654
12218 Au 0 LAT Au 0 0.000 196.96654
12219 Au 0 LAT Au 0 0.000 196.96654
12220 Au 0 LAT Au 0 0.000 196.96654
12221 Au 0 LAT Au 0 0.000 196.96654
12222 Au 0 LAT Au 0 0.000 196.96654
12223 Au 0 LAT Au 0 0.000 196.96654
12224 Au 0 LAT Au 0 0.000 196.96654
12225 Au 0 LAT Au 0 0.000 196.96654
12226 Au 0 LAT Au 0 0.000 196.96654
12227 Au 0 LAT Au 0 0.000 196.96654
12228 Au 0 LAT Au 0 0.000 196.96654
12229 Au 0 LAT Au 0 0.000 196.96654
12230 Au 0 LAT Au 0 0.000 196.96654
12231 Au 0 LAT Au 0 0.000 196.96654
12232 Au 0 LAT Au 0 0.000 196.96654
12233 Au 0 LAT Au 0 0.000 196.96654
12234 Au 0 LAT Au 0 0.000 196.96654
12235 Au 0 LAT Au 0 0.000 196.96654
12236 Au 0 LAT Au 0 0.000 196.96654
12237 Au 0 LAT Au 0 0.000 196.96654
12238 Au 0 LAT Au 0 0.000 196.96654
12239 Au 0 LAT Au 0 0.000 196.96654
12240 Au 0 LAT Au 0 0.000 196.96654
12241 Au 0 LAT Au 0 0.000 196.96654
12242 Au 0 LAT Au 0 0.000 196.96654
12243 Au 0 LAT Au 0 0.000 196.96654
12244 Au 0 LAT Au 0 0.000 196.96654
12245 Au 0 LAT Au 0 0.000 196.96654
12246 Au 0 LAT Au 0 0.000 196.96654
12247 Au 0 LAT Au 0 0.000 196.96654
12248 Au 0 LAT Au 0 0.000 196.96654
12249 Au 0 LAT Au 0 0.000 196.96654
12250 Au 0 LAT Au 0 0.000 196.96654
12251 Au 0 LAT Au 0 0.000 196.96654
12252 Au 0 LAT Au 0 0.000 196.96654
12253 Au 0 LAT Au 0 0.000 196.96654
12254 Au 0 LAT Au 0 0.000 196.96654
12255 Au 0 LAT Au 0 0.000 196.96654
12256 Au 0 LAT Au 0 0.000 196.96654
12257 Au 0 LAT Au 0 0.000 196.96654
12258 Au 0 LAT Au 0 0.000 196.96654
12259 Au 0 LAT Au 0 0.000 196.96654
12260 Au 0 LAT Au 0 0.000 196.96654
12261 Au 0 LAT Au 0 0.000 196.96654
12262 Au 0 LAT Au 0 0.000 196.96654
12263 Au 0 LAT Au 0 0.000 196.96654

[ bonds ]
1 2 1
2 3 1
3 4 1
4 5 1
5 6 1
7 8 1
8 9 1
9 10 1
10 11 1
11 12 1
13 14 1
14 15 1
15 16 1
16 17 1
17 18 1
19 20 1
20 21 1
21 22 1
22 23 1
23 24 1
25 26 1
26 27 1
27 28 1
28 29 1
29 30 1
31 32 1
32 33 1
33 34 1
34 35 1
35 36 1
37 38 1
38 39 1
39 40 1
40 41 1
41 42 1
43 44 1
44 45 1
45 46 1
46 47 1
47 48 1
49 50 1
50 51 1
51 52 1
52 53 1
53 54 1
55 56 1
56 57 1
57 58 1
58 59 1
59 60 1
61 62 1
62 63 1
63 64 1
64 65 1
65 66 1
67 68 1
68 69 1
69 70 1
70 71 1
71 72 1
73 74 1
74 75 1
75 76 1
76 77 1
77 78 1
79 80 1
80 81 1
81 82 1
82 83 1
83 84 1
85 86 1
86 87 1
87 88 1
88 89 1
89 90 1
91 92 1
92 93 1
93 94 1
94 95 1
95 96 1
97 98 1
98 99 1
99 100 1
100 101 1
101 102 1
103 104 1
104 105 1
105 106 1
106 107 1
107 108 1
109 110 1
110 111 1
111 112 1
112 113 1
113 114 1
115 116 1
116 117 1
117 118 1
118 119 1
119 120 1
121 122 1
122 123 1
123 124 1
124 125 1
125 126 1
127 128 1
128 129 1
129 130 1
130 131 1
131 132 1
133 134 1
134 135 1
135 136 1
136 137 1
137 138 1
139 140 1
140 141 1
141 142 1
142 143 1
143 144 1
145 146 1
146 147 1
147 148 1
148 149 1
149 150 1
151 152 1
152 153 1
153 154 1
154 155 1
155 156 1
157 158 1
158 159 1
159 160 1
160 161 1
161 162 1
163 164 1
164 165 1
165 166 1
166 167 1
167 168 1
169 170 1
170 171 1
171 172 1
172 173 1
173 174 1
175 176 1
176 177 1
177 178 1
178 179 1
179 180 1
181 182 1
182 183 1
183 184 1
184 185 1
185 186 1
187 188 1
188 189 1
189 190 1
190 191 1
191 192 1
193 194 1
194 195 1
195 196 1
196 197 1
197 198 1
199 200 1
200 201 1
201 202 1
202 203 1
203 204 1
205 206 1
206 207 1
207 208 1
208 209 1
209 210 1
211 212 1
212 213 1
213 214 1
214 215 1
215 216 1
217 218 1
218 219 1
219 220 1
220 221 1
221 222 1
223 224 1
224 225 1
225 226 1
226 227 1
227 228 1
229 230 1
230 231 1
231 232 1
232 233 1
233 234 1
235 236 1
236 237 1
237 238 1
238 239 1
239 240 1
241 242 1
242 243 1
243 244 1
244 245 1
245 246 1
247 248 1
248 249 1
249 250 1
250 251 1
251 252 1
253 254 1
254 255 1
255 256 1
256 257 1
257 258 1
259 260 1
260 261 1
261 262 1
262 263 1
263 264 1
265 266 1
266 267 1
267 268 1
268 269 1
269 270 1
271 272 1
272 273 1
273 274 1
274 275 1
275 276 1
277 278 1
278 279 1
279 280 1
280 281 1
281 282 1
283 284 1
284 285 1
285 286 1
286 287 1
287 288 1
289 290 1
290 291 1
291 292 1
292 293 1
293 294 1
295 296 1
296 297 1
297 298 1
298 299 1
299 300 1
301 302 1
302 303 1
303 304 1
304 305 1
305 306 1
307 308 1
308 309 1
309 310 1
310 311 1
311 312 1
313 314 1
314 315 1
315 316 1
316 317 1
317 318 1
319 320 1
320 321 1
321 322 1
322 323 1
323 324 1
325 326 1
326 327 1
327 328 1
328 329 1
329 330 1
331 332 1
332 333 1
333 334 1
334 335 1
335 336 1
337 338 1
338 339 1
339 340 1
340 341 1
341 342 1
343 344 1
344 345 1
345 346 1
346 347 1
347 348 1
349 350 1
350 351 1
351 352 1
352 353 1
353 354 1
355 356 1
356 357 1
357 358 1
358 359 1
359 360 1
361 362 1
362 363 1
363 364 1
364 365 1
365 366 1
367 368 1
368 369 1
369 370 1
370 371 1
371 372 1
373 374 1
374 375 1
375 376 1
376 377 1
377 378 1
379 380 1
380 381 1
381 382 1
382 383 1
383 384 1
385 386 1
386 387 1
387 388 1
388 389 1
389 390 1
391 392 1
392 393 1
393 394 1
394 395 1
395 396 1
397 398 1
398 399 1
399 400 1
400 401 1
401 402 1
403 404 1
404 405 1
405 406 1
406 407 1
407 408 1
409 410 1
410 411 1
411 412 1
412 413 1
413 414 1
415 416 1
416 417 1
417 418 1
418 419 1
419 420 1
421 422 1
422 423 1
423 424 1
424 425 1
425 426 1
427 428 1
428 429 1
429 430 1
430 431 1
431 432 1
433 434 1
434 435 1
435 436 1
436 437 1
437 438 1
439 440 1
440 441 1
441 442 1
442 443 1
443 444 1
445 446 1
446 447 1
447 448 1
448 449 1
449 450 1
451 452 1
452 453 1
453 454 1
454 455 1
455 456 1
457 458 1
458 459 1
459 460 1
460 461 1
461 462 1
463 464 1
464 465 1
465 466 1
466 467 1
467 468 1
469 470 1
470 471 1
471 472 1
472 473 1
473 474 1
475 476 1
476 477 1
477 478 1
478 479 1
479 480 1
481 482 1
482 483 1
483 484 1
484 485 1
485 486 1
487 488 1
488 489 1
489 490 1
490 491 1
491 492 1
493 494 1
494 495 1
495 496 1
496 497 1
497 498 1
499 500 1
500 501 1
501 502 1
502 503 1
503 504 1
505 506 1
506 507 1
507 508 1
508 509 1
509 510 1
511 512 1
512 513 1
513 514 1
514 515 1
515 516 1
517 518 1
518 519 1
519 520 1
520 521 1
521 522 1
523 524 1
524 525 1
525 526 1
526 527 1
527 528 1
529 530 1
530 531 1
531 532 1
532 533 1
533 534 1
535 536 1
536 537 1
537 538 1
538 539 1
539 540 1
;sub-sub
541 542 1
541 543 1
541 544 1
542 543 1
542 544 1
542 545 1
542 547 1
542 613 1
542 616 1
542 617 1
543 544 1
543 613 1
543 616 1
543 1158 1
543 1159 1
543 1230 1
544 545 1
544 547 1
544 1158 1
544 1159 1
544 1162 1
545 546 1
545 547 1
545 548 1
546 547 1
546 548 1
546 549 1
546 551 1
546 617 1
546 620 1
546 621 1
547 548 1
547 616 1
547 617 1
547 620 1
547 1159 1
547 1162 1
547 1163 1
547 1234 1
548 549 1
548 551 1
548 1162 1
548 1163 1
548 1166 1
549 550 1
549 551 1
549 552 1
550 551 1
550 552 1
550 553 1
550 555 1
550 621 1
550 624 1
550 625 1
551 552 1
551 620 1
551 621 1
551 624 1
551 1163 1
551 1166 1
551 1167 1
551 1238 1
552 553 1
552 555 1
552 1166 1
552 1167 1
552 1170 1
553 554 1
553 555 1
553 556 1
554 555 1
554 556 1
554 557 1
554 559 1
554 625 1
554 628 1
554 629 1
555 556 1
555 624 1
555 625 1
555 628 1
555 1167 1
555 1170 1
555 1171 1
555 1242 1
556 557 1
556 559 1
556 1170 1
556 1171 1
556 1174 1
557 558 1
557 559 1
557 560 1
558 559 1
558 560 1
558 561 1
558 563 1
558 629 1
558 632 1
558 633 1
559 560 1
559 628 1
559 629 1
559 632 1
559 1171 1
559 1174 1
559 1175 1
559 1246 1
560 561 1
560 563 1
560 1174 1
560 1175 1
560 1178 1
561 562 1
561 563 1
561 564 1
562 563 1
562 564 1
562 565 1
562 567 1
562 633 1
562 636 1
562 637 1
563 564 1
563 632 1
563 633 1
563 636 1
563 1175 1
563 1178 1
563 1179 1
563 1250 1
564 565 1
564 567 1
564 1178 1
564 1179 1
564 1182 1
565 566 1
565 567 1
565 568 1
566 567 1
566 568 1
566 569 1
566 571 1
566 637 1
566 640 1
566 641 1
567 568 1
567 636 1
567 637 1
567 640 1
567 1179 1
567 1182 1
567 1183 1
567 1254 1
568 569 1
568 571 1
568 1182 1
568 1183 1
568 1186 1
569 570 1
569 571 1
569 572 1
570 571 1
570 572 1
570 573 1
570 575 1
570 641 1
570 644 1
570 645 1
571 572 1
571 640 1
571 641 1
571 644 1
571 1183 1
571 1186 1
571 1187 1
571 1258 1
572 573 1
572 575 1
572 1186 1
572 1187 1
572 1190 1
573 574 1
573 575 1
573 576 1
574 575 1
574 576 1
574 577 1
574 579 1
574 645 1
574 647 1
574 648 1
575 576 1
575 644 1
575 645 1
575 647 1
575 1187 1
575 1190 1
575 1191 1
575 1262 1
576 577 1
576 579 1
576 1190 1
576 1191 1
576 1194 1
577 578 1
577 579 1
577 580 1
578 579 1
578 580 1
578 581 1
578 583 1
578 648 1
578 649 1
578 650 1
579 580 1
579 647 1
579 648 1
579 649 1
579 1191 1
579 1194 1
579 1195 1
579 1265 1
580 581 1
580 583 1
580 1194 1
580 1195 1
580 1198 1
581 582 1
581 583 1
581 584 1
582 583 1
582 584 1
582 585 1
582 587 1
582 650 1
582 653 1
582 654 1
583 584 1
583 649 1
583 650 1
583 653 1
583 1195 1
583 1198 1
583 1199 1
583 1267 1
584 585 1
584 587 1
584 1198 1
584 1199 1
584 1202 1
585 586 1
585 587 1
585 588 1
586 587 1
586 588 1
586 589 1
586 591 1
586 654 1
586 657 1
586 658 1
587 588 1
587 653 1
587 654 1
587 657 1
587 1199 1
587 1202 1
587 1203 1
587 1271 1
588 589 1
588 591 1
588 1202 1
588 1203 1
588 1206 1
589 590 1
589 591 1
589 592 1
590 591 1
590 592 1
590 593 1
590 595 1
590 658 1
590 661 1
590 662 1
591 592 1
591 657 1
591 658 1
591 661 1
591 1203 1
591 1206 1
591 1207 1
591 1275 1
592 593 1
592 595 1
592 1206 1
592 1207 1
592 1210 1
593 594 1
593 595 1
593 596 1
594 595 1
594 596 1
594 597 1
594 599 1
594 662 1
594 665 1
594 666 1
595 596 1
595 661 1
595 662 1
595 665 1
595 1207 1
595 1210 1
595 1211 1
595 1279 1
596 597 1
596 599 1
596 1210 1
596 1211 1
596 1214 1
597 598 1
597 599 1
597 600 1
598 599 1
598 600 1
598 601 1
598 603 1
598 666 1
598 669 1
598 670 1
599 600 1
599 665 1
599 666 1
599 669 1
599 1211 1
599 1214 1
599 1215 1
599 1283 1
600 601 1
600 603 1
600 1214 1
600 1215 1
600 1218 1
601 602 1
601 603 1
601 604 1
602 603 1
602 604 1
602 605 1
602 607 1
602 670 1
602 673 1
602 674 1
603 604 1
603 669 1
603 670 1
603 673 1
603 1215 1
603 1218 1
603 1219 1
603 1287 1
604 605 1
604 607 1
604 1218 1
604 1219 1
604 1222 1
605 606 1
605 607 1
605 608 1
606 607 1
606 608 1
606 609 1
606 611 1
606 674 1
606 677 1
606 678 1
607 608 1
607 673 1
607 674 1
607 677 1
607 1219 1
607 1222 1
607 1223 1
607 1291 1
608 609 1
608 611 1
608 1222 1
608 1223 1
608 1226 1
609 610 1
609 611 1
609 612 1
610 611 1
610 612 1
610 678 1
610 681 1
611 612 1
611 677 1
611 678 1
611 681 1
611 1223 1
611 1226 1
611 1227 1
611 1295 1
612 1226 1
612 1227 1
613 614 1
613 615 1
613 616 1
614 615 1
614 616 1
614 617 1
614 619 1
614 682 1
614 685 1
614 686 1
615 616 1
615 682 1
615 685 1
615 1230 1
615 1231 1
615 1299 1
616 617 1
616 619 1
616 1159 1
616 1230 1
616 1231 1
616 1234 1
617 618 1
617 619 1
617 620 1
618 619 1
618 620 1
618 621 1
618 623 1
618 686 1
618 689 1
618 690 1
619 620 1
619 685 1
619 686 1
619 689 1
619 1231 1
619 1234 1
619 1235 1
619 1303 1
620 621 1
620 623 1
620 1163 1
620 1234 1
620 1235 1
620 1238 1
621 622 1
621 623 1
621 624 1
622 623 1
622 624 1
622 625 1
622 627 1
622 690 1
622 693 1
622 694 1
623 624 1
623 689 1
623 690 1
623 693 1
623 1235 1
623 1238 1
623 1239 1
623 1307 1
624 625 1
624 627 1
624 1167 1
624 1238 1
624 1239 1
624 1242 1
625 626 1
625 627 1
625 628 1
626 627 1
626 628 1
626 629 1
626 631 1
626 694 1
626 697 1
626 698 1
627 628 1
627 693 1
627 694 1
627 697 1
627 1239 1
627 1242 1
627 1243 1
627 1311 1
628 629 1
628 631 1
628 1171 1
628 1242 1
628 1243 1
628 1246 1
629 630 1
629 631 1
629 632 1
630 631 1
630 632 1
630 633 1
630 635 1
630 698 1
630 701 1
630 702 1
631 632 1
631 697 1
631 698 1
631 701 1
631 1243 1
631 1246 1
631 1247 1
631 1315 1
632 633 1
632 635 1
632 1175 1
632 1246 1
632 1247 1
632 1250 1
633 634 1
633 635 1
633 636 1
634 635 1
634 636 1
634 637 1
634 639 1
634 702 1
634 704 1
634 705 1
635 636 1
635 701 1
635 702 1
635 704 1
635 1247 1
635 1250 1
635 1251 1
635 1319 1
636 637 1
636 639 1
636 1179 1
636 1250 1
636 1251 1
636 1254 1
637 638 1
637 639 1
637 640 1
638 639 1
638 640 1
638 641 1
638 643 1
638 705 1
639 640 1
639 704 1
639 705 1
639 1251 1
639 1254 1
639 1255 1
639 1322 1
640 641 1
640 643 1
640 1183 1
640 1254 1
640 1255 1
640 1258 1
641 642 1
641 643 1
641 644 1
642 643 1
642 644 1
642 645 1
642 646 1
643 644 1
643 1255 1
643 1258 1
643 1259 1
644 645 1
644 646 1
644 1187 1
644 1258 1
644 1259 1
644 1262 1
645 646 1
645 647 1
646 647 1
646 1259 1
646 1262 1
647 648 1
647 1191 1
647 1262 1
647 1265 1
648 649 1
649 650 1
649 652 1
649 1195 1
649 1265 1
649 1267 1
650 651 1
650 652 1
650 653 1
651 652 1
651 653 1
651 654 1
651 656 1
652 653 1
652 1267 1
652 1268 1
653 654 1
653 656 1
653 1199 1
653 1267 1
653 1268 1
653 1271 1
654 655 1
654 656 1
654 657 1
655 656 1
655 657 1
655 658 1
655 660 1
655 706 1
656 657 1
656 1268 1
656 1271 1
656 1272 1
657 658 1
657 660 1
657 1203 1
657 1271 1
657 1272 1
657 1275 1
658 659 1
658 660 1
658 661 1
659 660 1
659 661 1
659 662 1
659 664 1
659 706 1
659 707 1
659 708 1
660 661 1
660 706 1
660 707 1
660 1272 1
660 1275 1
660 1276 1
660 1323 1
661 662 1
661 664 1
661 1207 1
661 1275 1
661 1276 1
661 1279 1
662 663 1
662 664 1
662 665 1
663 664 1
663 665 1
663 666 1
663 668 1
663 708 1
663 711 1
663 712 1
664 665 1
664 707 1
664 708 1
664 711 1
664 1276 1
664 1279 1
664 1280 1
664 1325 1
665 666 1
665 668 1
665 1211 1
665 1279 1
665 1280 1
665 1283 1
666 667 1
666 668 1
666 669 1
667 668 1
667 669 1
667 670 1
667 672 1
667 712 1
667 715 1
667 716 1
668 669 1
668 711 1
668 712 1
668 715 1
668 1280 1
668 1283 1
668 1284 1
668 1329 1
669 670 1
669 672 1
669 1215 1
669 1283 1
669 1284 1
669 1287 1
670 671 1
670 672 1
670 673 1
671 672 1
671 673 1
671 674 1
671 676 1
671 716 1
671 719 1
671 720 1
672 673 1
672 715 1
672 716 1
672 719 1
672 1284 1
672 1287 1
672 1288 1
672 1333 1
673 674 1
673 676 1
673 1219 1
673 1287 1
673 1288 1
673 1291 1
674 675 1
674 676 1
674 677 1
675 676 1
675 677 1
675 678 1
675 680 1
675 720 1
675 723 1
675 724 1
676 677 1
676 719 1
676 720 1
676 723 1
676 1288 1
676 1291 1
676 1292 1
676 1337 1
677 678 1
677 680 1
677 1223 1
677 1291 1
677 1292 1
677 1295 1
678 679 1
678 680 1
678 681 1
679 680 1
679 681 1
679 724 1
679 727 1
680 681 1
680 723 1
680 724 1
680 727 1
680 1292 1
680 1295 1
680 1296 1
680 1341 1
681 1227 1
681 1295 1
681 1296 1
682 683 1
682 684 1
682 685 1
683 684 1
683 685 1
683 686 1
683 688 1
683 728 1
683 731 1
683 732 1
684 685 1
684 728 1
684 731 1
684 1299 1
684 1300 1
684 1345 1
685 686 1
685 688 1
685 1231 1
685 1299 1
685 1300 1
685 1303 1
686 687 1
686 688 1
686 689 1
687 688 1
687 689 1
687 690 1
687 692 1
687 732 1
687 735 1
687 736 1
688 689 1
688 731 1
688 732 1
688 735 1
688 1300 1
688 1303 1
688 1304 1
688 1349 1
689 690 1
689 692 1
689 1235 1
689 1303 1
689 1304 1
689 1307 1
690 691 1
690 692 1
690 693 1
691 692 1
691 693 1
691 694 1
691 696 1
691 736 1
691 739 1
691 740 1
692 693 1
692 735 1
692 736 1
692 739 1
692 1304 1
692 1307 1
692 1308 1
692 1353 1
693 694 1
693 696 1
693 1239 1
693 1307 1
693 1308 1
693 1311 1
694 695 1
694 696 1
694 697 1
695 696 1
695 697 1
695 698 1
695 700 1
695 740 1
695 743 1
695 744 1
696 697 1
696 739 1
696 740 1
696 743 1
696 1308 1
696 1311 1
696 1312 1
696 1357 1
697 698 1
697 700 1
697 1243 1
697 1311 1
697 1312 1
697 1315 1
698 699 1
698 700 1
698 701 1
699 700 1
699 701 1
699 702 1
699 703 1
699 744 1
700 701 1
700 743 1
700 744 1
700 1312 1
700 1315 1
700 1316 1
700 1361 1
701 702 1
701 703 1
701 1247 1
701 1315 1
701 1316 1
701 1319 1
702 703 1
702 704 1
703 704 1
703 1316 1
703 1319 1
704 705 1
704 1251 1
704 1319 1
704 1322 1
706 707 1
707 708 1
707 710 1
707 1276 1
707 1323 1
707 1325 1
708 709 1
708 710 1
708 711 1
709 710 1
709 711 1
709 712 1
709 714 1
709 745 1
709 746 1
710 711 1
710 745 1
710 1325 1
710 1326 1
711 712 1
711 714 1
711 1280 1
711 1325 1
711 1326 1
711 1329 1
712 713 1
712 714 1
712 715 1
713 714 1
713 715 1
713 716 1
713 718 1
713 746 1
713 749 1
713 750 1
714 715 1
714 745 1
714 746 1
714 749 1
714 1326 1
714 1329 1
714 1330 1
714 1363 1
715 716 1
715 718 1
715 1284 1
715 1329 1
715 1330 1
715 1333 1
716 717 1
716 718 1
716 719 1
717 718 1
717 719 1
717 720 1
717 722 1
717 750 1
717 753 1
717 754 1
718 719 1
718 749 1
718 750 1
718 753 1
718 1330 1
718 1333 1
718 1334 1
718 1367 1
719 720 1
719 722 1
719 1288 1
719 1333 1
719 1334 1
719 1337 1
720 721 1
720 722 1
720 723 1
721 722 1
721 723 1
721 724 1
721 726 1
721 754 1
721 757 1
721 758 1
722 723 1
722 753 1
722 754 1
722 757 1
722 1334 1
722 1337 1
722 1338 1
722 1371 1
723 724 1
723 726 1
723 1292 1
723 1337 1
723 1338 1
723 1341 1
724 725 1
724 726 1
724 727 1
725 726 1
725 727 1
725 758 1
725 761 1
726 727 1
726 757 1
726 758 1
726 761 1
726 1338 1
726 1341 1
726 1342 1
726 1375 1
727 1296 1
727 1341 1
727 1342 1
728 729 1
728 730 1
728 731 1
729 730 1
729 731 1
729 732 1
729 734 1
729 762 1
729 765 1
729 766 1
730 731 1
730 762 1
730 765 1
730 1345 1
730 1346 1
730 1379 1
731 732 1
731 734 1
731 1300 1
731 1345 1
731 1346 1
731 1349 1
732 733 1
732 734 1
732 735 1
733 734 1
733 735 1
733 736 1
733 738 1
733 766 1
733 769 1
733 770 1
734 735 1
734 765 1
734 766 1
734 769 1
734 1346 1
734 1349 1
734 1350 1
734 1383 1
735 736 1
735 738 1
735 1304 1
735 1349 1
735 1350 1
735 1353 1
736 737 1
736 738 1
736 739 1
737 738 1
737 739 1
737 740 1
737 742 1
737 770 1
737 773 1
737 774 1
738 739 1
738 769 1
738 770 1
738 773 1
738 1350 1
738 1353 1
738 1354 1
738 1387 1
739 740 1
739 742 1
739 1308 1
739 1353 1
739 1354 1
739 1357 1
740 741 1
740 742 1
740 743 1
741 742 1
741 743 1
741 744 1
741 774 1
742 743 1
742 773 1
742 774 1
742 1354 1
742 1357 1
742 1358 1
742 1391 1
743 744 1
743 1312 1
743 1357 1
743 1358 1
743 1361 1
745 746 1
745 748 1
745 1326 1
745 1363 1
746 747 1
746 748 1
746 749 1
747 748 1
747 749 1
747 750 1
747 752 1
747 775 1
747 776 1
748 749 1
748 775 1
748 1363 1
748 1364 1
749 750 1
749 752 1
749 1330 1
749 1363 1
749 1364 1
749 1367 1
750 751 1
750 752 1
750 753 1
751 752 1
751 753 1
751 754 1
751 756 1
751 776 1
751 779 1
751 780 1
752 753 1
752 775 1
752 776 1
752 779 1
752 1364 1
752 1367 1
752 1368 1
752 1393 1
753 754 1
753 756 1
753 1334 1
753 1367 1
753 1368 1
753 1371 1
754 755 1
754 756 1
754 757 1
755 756 1
755 757 1
755 758 1
755 760 1
755 780 1
755 783 1
755 784 1
756 757 1
756 779 1
756 780 1
756 783 1
756 1368 1
756 1371 1
756 1372 1
756 1397 1
757 758 1
757 760 1
757 1338 1
757 1371 1
757 1372 1
757 1375 1
758 759 1
758 760 1
758 761 1
759 760 1
759 761 1
759 784 1
759 787 1
760 761 1
760 783 1
760 784 1
760 787 1
760 1372 1
760 1375 1
760 1376 1
760 1401 1
761 1342 1
761 1375 1
761 1376 1
762 763 1
762 764 1
762 765 1
763 764 1
763 765 1
763 766 1
763 768 1
763 788 1
763 791 1
763 792 1
764 765 1
764 788 1
764 791 1
764 1379 1
764 1380 1
764 1405 1
765 766 1
765 768 1
765 1346 1
765 1379 1
765 1380 1
765 1383 1
766 767 1
766 768 1
766 769 1
767 768 1
767 769 1
767 770 1
767 772 1
767 792 1
767 795 1
767 796 1
768 769 1
768 791 1
768 792 1
768 795 1
768 1380 1
768 1383 1
768 1384 1
768 1409 1
769 770 1
769 772 1
769 1350 1
769 1383 1
769 1384 1
769 1387 1
770 771 1
770 772 1
770 773 1
771 772 1
771 773 1
771 774 1
771 796 1
771 798 1
772 773 1
772 795 1
772 796 1
772 798 1
772 1384 1
772 1387 1
772 1388 1
772 1413 1
773 774 1
773 1354 1
773 1387 1
773 1388 1
773 1391 1
775 776 1
775 778 1
775 1364 1
775 1393 1
776 777 1
776 778 1
776 779 1
777 778 1
777 779 1
777 780 1
777 782 1
777 800 1
777 801 1
778 779 1
778 800 1
778 1393 1
778 1394 1
779 780 1
779 782 1
779 1368 1
779 1393 1
779 1394 1
779 1397 1
780 781 1
780 782 1
780 783 1
781 782 1
781 783 1
781 784 1
781 786 1
781 801 1
781 804 1
781 805 1
782 783 1
782 800 1
782 801 1
782 804 1
782 1394 1
782 1397 1
782 1398 1
782 1418 1
783 784 1
783 786 1
783 1372 1
783 1397 1
783 1398 1
783 1401 1
784 785 1
784 786 1
784 787 1
785 786 1
785 787 1
785 805 1
785 808 1
786 787 1
786 804 1
786 805 1
786 808 1
786 1398 1
786 1401 1
786 1402 1
786 1422 1
787 1376 1
787 1401 1
787 1402 1
788 789 1
788 790 1
788 791 1
789 790 1
789 791 1
789 792 1
789 794 1
789 809 1
789 812 1
789 813 1
790 791 1
790 809 1
790 812 1
790 1405 1
790 1406 1
790 1426 1
791 792 1
791 794 1
791 1380 1
791 1405 1
791 1406 1
791 1409 1
792 793 1
792 794 1
792 795 1
793 794 1
793 795 1
793 796 1
793 797 1
793 813 1
793 816 1
793 817 1
794 795 1
794 812 1
794 813 1
794 816 1
794 1406 1
794 1409 1
794 1410 1
794 1430 1
795 796 1
795 797 1
795 1384 1
795 1409 1
795 1410 1
795 1413 1
796 797 1
796 798 1
797 798 1
797 816 1
797 817 1
797 1410 1
797 1413 1
797 1434 1
798 1388 1
798 1413 1
799 800 1
799 801 1
799 803 1
799 818 1
800 801 1
800 803 1
800 1394 1
800 1416 1
800 1418 1
801 802 1
801 803 1
801 804 1
802 803 1
802 804 1
802 805 1
802 807 1
802 818 1
802 821 1
802 822 1
803 804 1
803 818 1
803 821 1
803 1416 1
803 1418 1
803 1419 1
803 1435 1
804 805 1
804 807 1
804 1398 1
804 1418 1
804 1419 1
804 1422 1
805 806 1
805 807 1
805 808 1
806 807 1
806 808 1
806 822 1
806 825 1
807 808 1
807 821 1
807 822 1
807 825 1
807 1419 1
807 1422 1
807 1423 1
807 1439 1
808 1402 1
808 1422 1
808 1423 1
809 810 1
809 811 1
809 812 1
810 811 1
810 812 1
810 813 1
810 815 1
810 826 1
810 829 1
810 830 1
811 812 1
811 826 1
811 829 1
811 1426 1
811 1427 1
811 1443 1
812 813 1
812 815 1
812 1406 1
812 1426 1
812 1427 1
812 1430 1
813 814 1
813 815 1
813 816 1
814 815 1
814 816 1
814 817 1
814 830 1
814 833 1
815 816 1
815 829 1
815 830 1
815 833 1
815 1427 1
815 1430 1
815 1431 1
815 1447 1
816 817 1
816 1410 1
816 1430 1
816 1431 1
816 1434 1
818 819 1
818 820 1
818 821 1
819 820 1
819 821 1
819 822 1
819 824 1
819 834 1
819 836 1
819 837 1
820 821 1
820 834 1
820 836 1
820 1435 1
820 1436 1
820 1451 1
821 822 1
821 824 1
821 1419 1
821 1435 1
821 1436 1
821 1439 1
822 823 1
822 824 1
822 825 1
823 824 1
823 825 1
823 837 1
823 840 1
824 825 1
824 836 1
824 837 1
824 840 1
824 1436 1
824 1439 1
824 1440 1
824 1454 1
825 1423 1
825 1439 1
825 1440 1
826 827 1
826 828 1
826 829 1
827 828 1
827 829 1
827 830 1
827 832 1
827 841 1
827 844 1
827 845 1
828 829 1
828 841 1
828 844 1
828 1443 1
828 1444 1
828 1458 1
829 830 1
829 832 1
829 1427 1
829 1443 1
829 1444 1
829 1447 1
830 831 1
830 832 1
830 833 1
831 832 1
831 833 1
831 845 1
831 847 1
832 833 1
832 844 1
832 845 1
832 847 1
832 1444 1
832 1447 1
832 1448 1
832 1462 1
833 1431 1
833 1447 1
833 1448 1
834 835 1
834 836 1
835 836 1
835 837 1
835 839 1
835 849 1
835 850 1
836 837 1
836 839 1
836 1436 1
836 1451 1
836 1452 1
836 1454 1
837 838 1
837 839 1
837 840 1
838 839 1
838 840 1
838 850 1
838 853 1
839 840 1
839 849 1
839 850 1
839 853 1
839 1452 1
839 1454 1
839 1455 1
839 1467 1
840 1440 1
840 1454 1
840 1455 1
841 842 1
841 843 1
841 844 1
842 843 1
842 844 1
842 845 1
842 846 1
842 854 1
842 857 1
842 858 1
843 844 1
843 854 1
843 857 1
843 1458 1
843 1459 1
843 1471 1
844 845 1
844 846 1
844 1444 1
844 1458 1
844 1459 1
844 1462 1
845 846 1
845 847 1
846 847 1
846 857 1
846 858 1
846 1459 1
846 1462 1
846 1475 1
847 1448 1
847 1462 1
848 849 1
848 850 1
848 852 1
848 861 1
848 862 1
849 850 1
849 852 1
849 1452 1
849 1465 1
849 1467 1
850 851 1
850 852 1
850 853 1
851 852 1
851 853 1
851 862 1
851 865 1
852 853 1
852 861 1
852 862 1
852 865 1
852 1465 1
852 1467 1
852 1468 1
852 1479 1
853 1455 1
853 1467 1
853 1468 1
854 855 1
854 856 1
854 857 1
855 856 1
855 857 1
855 858 1
855 859 1
855 866 1
855 869 1
855 870 1
856 857 1
856 866 1
856 869 1
856 1471 1
856 1472 1
856 1483 1
857 858 1
857 859 1
857 1459 1
857 1471 1
857 1472 1
857 1475 1
858 859 1
859 869 1
859 870 1
859 873 1
859 1472 1
859 1475 1
859 1487 1
860 861 1
860 862 1
860 864 1
860 876 1
860 877 1
861 862 1
861 864 1
861 1465 1
861 1477 1
861 1479 1
862 863 1
862 864 1
862 865 1
863 864 1
863 865 1
863 877 1
863 880 1
864 865 1
864 876 1
864 877 1
864 880 1
864 1477 1
864 1479 1
864 1480 1
864 1494 1
865 1468 1
865 1479 1
865 1480 1
866 867 1
866 868 1
866 869 1
867 868 1
867 869 1
867 870 1
867 872 1
867 881 1
867 884 1
867 885 1
868 869 1
868 881 1
868 884 1
868 1483 1
868 1484 1
868 1498 1
869 870 1
869 872 1
869 1472 1
869 1483 1
869 1484 1
869 1487 1
870 871 1
870 872 1
870 873 1
871 872 1
871 873 1
871 885 1
871 888 1
872 873 1
872 884 1
872 885 1
872 888 1
872 1484 1
872 1487 1
872 1488 1
872 1502 1
873 1487 1
873 1488 1
874 875 1
874 876 1
874 877 1
874 879 1
874 889 1
874 892 1
874 893 1
875 876 1
875 889 1
875 892 1
875 1491 1
875 1506 1
876 877 1
876 879 1
876 1477 1
876 1491 1
876 1494 1
877 878 1
877 879 1
877 880 1
878 879 1
878 880 1
878 893 1
878 896 1
879 880 1
879 892 1
879 893 1
879 896 1
879 1491 1
879 1494 1
879 1495 1
879 1510 1
880 1480 1
880 1494 1
880 1495 1
881 882 1
881 883 1
881 884 1
882 883 1
882 884 1
882 885 1
882 887 1
882 897 1
882 900 1
882 901 1
883 884 1
883 897 1
883 900 1
883 1498 1
883 1499 1
883 1514 1
884 885 1
884 887 1
884 1484 1
884 1498 1
884 1499 1
884 1502 1
885 886 1
885 887 1
885 888 1
886 887 1
886 888 1
886 901 1
886 904 1
886 905 1
887 888 1
887 900 1
887 901 1
887 904 1
887 1499 1
887 1502 1
887 1503 1
887 1518 1
888 1488 1
888 1502 1
888 1503 1
889 890 1
889 891 1
889 892 1
890 891 1
890 892 1
890 893 1
890 895 1
890 909 1
890 912 1
890 913 1
891 892 1
891 908 1
891 909 1
891 912 1
891 1506 1
891 1507 1
891 1526 1
892 893 1
892 895 1
892 1491 1
892 1506 1
892 1507 1
892 1510 1
893 894 1
893 895 1
893 896 1
894 895 1
894 896 1
894 913 1
894 916 1
895 896 1
895 912 1
895 913 1
895 916 1
895 1507 1
895 1510 1
895 1511 1
895 1530 1
896 1495 1
896 1510 1
896 1511 1
897 898 1
897 899 1
897 900 1
898 899 1
898 900 1
898 901 1
898 903 1
898 917 1
898 920 1
898 921 1
899 900 1
899 917 1
899 920 1
899 1514 1
899 1515 1
899 1534 1
900 901 1
900 903 1
900 1499 1
900 1514 1
900 1515 1
900 1518 1
901 902 1
901 903 1
901 904 1
902 903 1
902 904 1
902 905 1
902 906 1
902 921 1
902 924 1
902 925 1
903 904 1
903 920 1
903 921 1
903 924 1
903 1515 1
903 1518 1
903 1519 1
903 1538 1
904 905 1
904 906 1
904 1503 1
904 1518 1
904 1519 1
904 1522 1
905 906 1
906 924 1
906 925 1
906 928 1
906 1519 1
906 1522 1
906 1542 1
907 908 1
907 909 1
907 911 1
907 931 1
907 934 1
907 935 1
908 909 1
908 911 1
908 1524 1
908 1526 1
909 910 1
909 911 1
909 912 1
910 911 1
910 912 1
910 913 1
910 915 1
910 935 1
910 938 1
910 939 1
911 912 1
911 934 1
911 935 1
911 938 1
911 1524 1
911 1526 1
911 1527 1
911 1552 1
912 913 1
912 915 1
912 1507 1
912 1526 1
912 1527 1
912 1530 1
913 914 1
913 915 1
913 916 1
914 915 1
914 916 1
914 939 1
914 942 1
915 916 1
915 938 1
915 939 1
915 942 1
915 1527 1
915 1530 1
915 1531 1
915 1556 1
916 1511 1
916 1530 1
916 1531 1
917 918 1
917 919 1
917 920 1
918 919 1
918 920 1
918 921 1
918 923 1
918 943 1
918 946 1
918 947 1
919 920 1
919 943 1
919 946 1
919 1534 1
919 1535 1
919 1560 1
920 921 1
920 923 1
920 1515 1
920 1534 1
920 1535 1
920 1538 1
921 922 1
921 923 1
921 924 1
922 923 1
922 924 1
922 925 1
922 927 1
922 947 1
922 950 1
922 951 1
923 924 1
923 946 1
923 947 1
923 950 1
923 1535 1
923 1538 1
923 1539 1
923 1564 1
924 925 1
924 927 1
924 1519 1
924 1538 1
924 1539 1
924 1542 1
925 926 1
925 927 1
925 928 1
926 927 1
926 928 1
926 929 1
926 951 1
926 954 1
926 955 1
927 928 1
927 950 1
927 951 1
927 954 1
927 1539 1
927 1542 1
927 1543 1
927 1568 1
928 929 1
928 1542 1
928 1543 1
929 954 1
929 955 1
929 958 1
929 1543 1
929 1572 1
930 931 1
930 933 1
930 963 1
930 964 1
931 932 1
931 933 1
931 934 1
932 933 1
932 934 1
932 935 1
932 937 1
932 964 1
932 967 1
932 968 1
933 934 1
933 963 1
933 964 1
933 967 1
933 1547 1
933 1548 1
933 1549 1
933 1581 1
934 935 1
934 937 1
934 1524 1
934 1548 1
934 1549 1
934 1552 1
935 936 1
935 937 1
935 938 1
936 937 1
936 938 1
936 939 1
936 941 1
936 968 1
936 971 1
936 972 1
937 938 1
937 967 1
937 968 1
937 971 1
937 1549 1
937 1552 1
937 1553 1
937 1585 1
938 939 1
938 941 1
938 1527 1
938 1552 1
938 1553 1
938 1556 1
939 940 1
939 941 1
939 942 1
940 941 1
940 942 1
940 972 1
940 975 1
941 942 1
941 971 1
941 972 1
941 975 1
941 1553 1
941 1556 1
941 1557 1
941 1589 1
942 1531 1
942 1556 1
942 1557 1
943 944 1
943 945 1
943 946 1
944 945 1
944 946 1
944 947 1
944 949 1
944 976 1
944 979 1
944 980 1
945 946 1
945 976 1
945 979 1
945 1560 1
945 1561 1
945 1593 1
946 947 1
946 949 1
946 1535 1
946 1560 1
946 1561 1
946 1564 1
947 948 1
947 949 1
947 950 1
948 949 1
948 950 1
948 951 1
948 953 1
948 980 1
948 983 1
948 984 1
949 950 1
949 979 1
949 980 1
949 983 1
949 1561 1
949 1564 1
949 1565 1
949 1597 1
950 951 1
950 953 1
950 1539 1
950 1564 1
950 1565 1
950 1568 1
951 952 1
951 953 1
951 954 1
952 953 1
952 954 1
952 955 1
952 957 1
952 984 1
952 987 1
952 988 1
953 954 1
953 983 1
953 984 1
953 987 1
953 1565 1
953 1568 1
953 1569 1
953 1601 1
954 955 1
954 957 1
954 1543 1
954 1568 1
954 1569 1
954 1572 1
955 956 1
955 957 1
955 958 1
956 957 1
956 958 1
956 959 1
956 988 1
956 991 1
956 992 1
957 958 1
957 987 1
957 988 1
957 991 1
957 1569 1
957 1572 1
957 1573 1
957 1605 1
958 959 1
958 1572 1
958 1573 1
959 991 1
959 992 1
959 995 1
959 1573 1
959 1609 1
960 962 1
960 1000 1
960 1003 1
960 1004 1
961 962 1
961 963 1
961 964 1
961 966 1
961 1004 1
961 1007 1
961 1008 1
962 963 1
962 1003 1
962 1004 1
962 1007 1
962 1577 1
962 1578 1
962 1621 1
963 964 1
963 966 1
963 1547 1
963 1578 1
963 1581 1
964 965 1
964 966 1
964 967 1
965 966 1
965 967 1
965 968 1
965 970 1
965 1008 1
965 1011 1
965 1012 1
966 967 1
966 1007 1
966 1008 1
966 1011 1
966 1578 1
966 1581 1
966 1582 1
966 1625 1
967 968 1
967 970 1
967 1549 1
967 1581 1
967 1582 1
967 1585 1
968 969 1
968 970 1
968 971 1
969 970 1
969 971 1
969 972 1
969 974 1
969 1012 1
969 1015 1
969 1016 1
970 971 1
970 1011 1
970 1012 1
970 1015 1
970 1582 1
970 1585 1
970 1586 1
970 1629 1
971 972 1
971 974 1
971 1553 1
971 1585 1
971 1586 1
971 1589 1
972 973 1
972 974 1
972 975 1
973 974 1
973 975 1
973 1016 1
973 1019 1
974 975 1
974 1015 1
974 1016 1
974 1019 1
974 1586 1
974 1589 1
974 1590 1
974 1633 1
975 1557 1
975 1589 1
975 1590 1
976 977 1
976 978 1
976 979 1
977 978 1
977 979 1
977 980 1
977 982 1
977 1020 1
977 1023 1
977 1024 1
978 979 1
978 1020 1
978 1023 1
978 1593 1
978 1594 1
978 1637 1
979 980 1
979 982 1
979 1561 1
979 1593 1
979 1594 1
979 1597 1
980 981 1
980 982 1
980 983 1
981 982 1
981 983 1
981 984 1
981 986 1
981 1024 1
981 1027 1
981 1028 1
982 983 1
982 1023 1
982 1024 1
982 1027 1
982 1594 1
982 1597 1
982 1598 1
982 1641 1
983 984 1
983 986 1
983 1565 1
983 1597 1
983 1598 1
983 1601 1
984 985 1
984 986 1
984 987 1
985 986 1
985 987 1
985 988 1
985 990 1
985 1028 1
985 1031 1
985 1032 1
986 987 1
986 1027 1
986 1028 1
986 1031 1
986 1598 1
986 1601 1
986 1602 1
986 1645 1
987 988 1
987 990 1
987 1569 1
987 1601 1
987 1602 1
987 1605 1
988 989 1
988 990 1
988 991 1
989 990 1
989 991 1
989 992 1
989 994 1
989 1032 1
989 1035 1
989 1036 1
990 991 1
990 1031 1
990 1032 1
990 1035 1
990 1602 1
990 1605 1
990 1606 1
990 1649 1
991 992 1
991 994 1
991 1573 1
991 1605 1
991 1606 1
991 1609 1
992 993 1
992 994 1
992 995 1
993 994 1
993 995 1
993 997 1
993 1036 1
993 1039 1
993 1040 1
994 995 1
994 1035 1
994 1036 1
994 1039 1
994 1606 1
994 1609 1
994 1610 1
994 1653 1
995 997 1
995 1609 1
995 1610 1
996 997 1
996 1040 1
996 1043 1
996 1044 1
997 1039 1
997 1040 1
997 1043 1
997 1610 1
997 1613 1
997 1657 1
998 999 1
998 1000 1
998 1002 1
998 1062 1
998 1065 1
998 1066 1
999 1061 1
999 1062 1
999 1065 1
999 1615 1
999 1679 1
1000 1001 1
1000 1002 1
1000 1003 1
1001 1002 1
1001 1003 1
1001 1004 1
1001 1006 1
1001 1066 1
1001 1069 1
1001 1070 1
1002 1003 1
1002 1065 1
1002 1066 1
1002 1069 1
1002 1615 1
1002 1617 1
1002 1618 1
1002 1683 1
1003 1004 1
1003 1006 1
1003 1577 1
1003 1617 1
1003 1618 1
1003 1621 1
1004 1005 1
1004 1006 1
1004 1007 1
1005 1006 1
1005 1007 1
1005 1008 1
1005 1010 1
1005 1070 1
1005 1073 1
1005 1074 1
1006 1007 1
1006 1069 1
1006 1070 1
1006 1073 1
1006 1618 1
1006 1621 1
1006 1622 1
1006 1687 1
1007 1008 1
1007 1010 1
1007 1578 1
1007 1621 1
1007 1622 1
1007 1625 1
1008 1009 1
1008 1010 1
1008 1011 1
1009 1010 1
1009 1011 1
1009 1012 1
1009 1014 1
1009 1074 1
1009 1077 1
1009 1078 1
1010 1011 1
1010 1073 1
1010 1074 1
1010 1077 1
1010 1622 1
1010 1625 1
1010 1626 1
1010 1691 1
1011 1012 1
1011 1014 1
1011 1582 1
1011 1625 1
1011 1626 1
1011 1629 1
1012 1013 1
1012 1014 1
1012 1015 1
1013 1014 1
1013 1015 1
1013 1016 1
1013 1018 1
1013 1078 1
1013 1081 1
1013 1082 1
1014 1015 1
1014 1077 1
1014 1078 1
1014 1081 1
1014 1626 1
1014 1629 1
1014 1630 1
1014 1695 1
1015 1016 1
1015 1018 1
1015 1586 1
1015 1629 1
1015 1630 1
1015 1633 1
1016 1017 1
1016 1018 1
1016 1019 1
1017 1018 1
1017 1019 1
1017 1082 1
1017 1085 1
1018 1019 1
1018 1081 1
1018 1082 1
1018 1085 1
1018 1630 1
1018 1633 1
1018 1634 1
1018 1699 1
1019 1590 1
1019 1633 1
1019 1634 1
1020 1021 1
1020 1022 1
1020 1023 1
1021 1022 1
1021 1023 1
1021 1024 1
1021 1026 1
1021 1086 1
1021 1089 1
1021 1090 1
1022 1023 1
1022 1086 1
1022 1089 1
1022 1637 1
1022 1638 1
1022 1703 1
1023 1024 1
1023 1026 1
1023 1594 1
1023 1637 1
1023 1638 1
1023 1641 1
1024 1025 1
1024 1026 1
1024 1027 1
1025 1026 1
1025 1027 1
1025 1028 1
1025 1030 1
1025 1090 1
1025 1093 1
1025 1094 1
1026 1027 1
1026 1089 1
1026 1090 1
1026 1093 1
1026 1638 1
1026 1641 1
1026 1642 1
1026 1707 1
1027 1028 1
1027 1030 1
1027 1598 1
1027 1641 1
1027 1642 1
1027 1645 1
1028 1029 1
1028 1030 1
1028 1031 1
1029 1030 1
1029 1031 1
1029 1032 1
1029 1034 1
1029 1094 1
1029 1097 1
1029 1098 1
1030 1031 1
1030 1093 1
1030 1094 1
1030 1097 1
1030 1642 1
1030 1645 1
1030 1646 1
1030 1711 1
1031 1032 1
1031 1034 1
1031 1602 1
1031 1645 1
1031 1646 1
1031 1649 1
1032 1033 1
1032 1034 1
1032 1035 1
1033 1034 1
1033 1035 1
1033 1036 1
1033 1038 1
1033 1098 1
1033 1101 1
1033 1102 1
1034 1035 1
1034 1097 1
1034 1098 1
1034 1101 1
1034 1646 1
1034 1649 1
1034 1650 1
1034 1715 1
1035 1036 1
1035 1038 1
1035 1606 1
1035 1649 1
1035 1650 1
1035 1653 1
1036 1037 1
1036 1038 1
1036 1039 1
1037 1038 1
1037 1039 1
1037 1040 1
1037 1042 1
1037 1102 1
1037 1105 1
1037 1106 1
1038 1039 1
1038 1101 1
1038 1102 1
1038 1105 1
1038 1650 1
1038 1653 1
1038 1654 1
1038 1719 1
1039 1040 1
1039 1042 1
1039 1610 1
1039 1653 1
1039 1654 1
1039 1657 1
1040 1041 1
1040 1042 1
1040 1043 1
1041 1042 1
1041 1043 1
1041 1044 1
1041 1046 1
1041 1106 1
1041 1109 1
1041 1110 1
1042 1043 1
1042 1105 1
1042 1106 1
1042 1109 1
1042 1654 1
1042 1657 1
1042 1658 1
1042 1723 1
1043 1044 1
1043 1046 1
1043 1613 1
1043 1657 1
1043 1658 1
1043 1661 1
1044 1045 1
1044 1046 1
1044 1047 1
1045 1046 1
1045 1047 1
1045 1048 1
1045 1050 1
1045 1110 1
1045 1113 1
1045 1114 1
1046 1047 1
1046 1109 1
1046 1110 1
1046 1113 1
1046 1658 1
1046 1661 1
1046 1662 1
1046 1727 1
1047 1048 1
1047 1050 1
1047 1661 1
1047 1662 1
1047 1665 1
1048 1049 1
1048 1050 1
1049 1050 1
1049 1052 1
1049 1114 1
1049 1117 1
1049 1118 1
1050 1113 1
1050 1114 1
1050 1117 1
1050 1662 1
1050 1665 1
1050 1666 1
1050 1731 1
1051 1052 1
1051 1054 1
1051 1118 1
1051 1121 1
1051 1122 1
1052 1117 1
1052 1118 1
1052 1121 1
1052 1666 1
1052 1668 1
1052 1735 1
1053 1054 1
1053 1056 1
1053 1122 1
1053 1125 1
1053 1126 1
1054 1121 1
1054 1122 1
1054 1125 1
1054 1668 1
1054 1670 1
1054 1739 1
1055 1056 1
1055 1057 1
1055 1058 1
1055 1060 1
1055 1126 1
1055 1129 1
1055 1130 1
1056 1057 1
1056 1125 1
1056 1126 1
1056 1129 1
1056 1670 1
1056 1672 1
1056 1743 1
1057 1058 1
1057 1060 1
1057 1672 1
1057 1675 1
1058 1059 1
1058 1060 1
1058 1061 1
1059 1060 1
1059 1061 1
1059 1062 1
1059 1064 1
1059 1130 1
1059 1133 1
1059 1134 1
1060 1061 1
1060 1129 1
1060 1130 1
1060 1133 1
1060 1672 1
1060 1675 1
1060 1676 1
1060 1747 1
1061 1062 1
1061 1064 1
1061 1675 1
1061 1676 1
1061 1679 1
1062 1063 1
1062 1064 1
1062 1065 1
1063 1064 1
1063 1065 1
1063 1066 1
1063 1068 1
1063 1134 1
1063 1137 1
1063 1138 1
1064 1065 1
1064 1133 1
1064 1134 1
1064 1137 1
1064 1676 1
1064 1679 1
1064 1680 1
1064 1751 1
1065 1066 1
1065 1068 1
1065 1615 1
1065 1679 1
1065 1680 1
1065 1683 1
1066 1067 1
1066 1068 1
1066 1069 1
1067 1068 1
1067 1069 1
1067 1070 1
1067 1072 1
1067 1138 1
1067 1141 1
1067 1142 1
1068 1069 1
1068 1137 1
1068 1138 1
1068 1141 1
1068 1680 1
1068 1683 1
1068 1684 1
1068 1755 1
1069 1070 1
1069 1072 1
1069 1618 1
1069 1683 1
1069 1684 1
1069 1687 1
1070 1071 1
1070 1072 1
1070 1073 1
1071 1072 1
1071 1073 1
1071 1074 1
1071 1076 1
1071 1142 1
1071 1145 1
1071 1146 1
1072 1073 1
1072 1141 1
1072 1142 1
1072 1145 1
1072 1684 1
1072 1687 1
1072 1688 1
1072 1759 1
1073 1074 1
1073 1076 1
1073 1622 1
1073 1687 1
1073 1688 1
1073 1691 1
1074 1075 1
1074 1076 1
1074 1077 1
1075 1076 1
1075 1077 1
1075 1078 1
1075 1080 1
1075 1146 1
1075 1149 1
1075 1150 1
1076 1077 1
1076 1145 1
1076 1146 1
1076 1149 1
1076 1688 1
1076 1691 1
1076 1692 1
1076 1763 1
1077 1078 1
1077 1080 1
1077 1626 1
1077 1691 1
1077 1692 1
1077 1695 1
1078 1079 1
1078 1080 1
1078 1081 1
1079 1080 1
1079 1081 1
1079 1082 1
1079 1084 1
1079 1150 1
1079 1153 1
1079 1154 1
1080 1081 1
1080 1149 1
1080 1150 1
1080 1153 1
1080 1692 1
1080 1695 1
1080 1696 1
1080 1767 1
1081 1082 1
1081 1084 1
1081 1630 1
1081 1695 1
1081 1696 1
1081 1699 1
1082 1083 1
1082 1084 1
1082 1085 1
1083 1084 1
1083 1085 1
1083 1154 1
1083 1157 1
1084 1085 1
1084 1153 1
1084 1154 1
1084 1157 1
1084 1696 1
1084 1699 1
1084 1700 1
1084 1771 1
1085 1634 1
1085 1699 1
1085 1700 1
1086 1087 1
1086 1088 1
1086 1089 1
1087 1088 1
1087 1089 1
1087 1090 1
1087 1092 1
1088 1089 1
1088 1703 1
1088 1704 1
1089 1090 1
1089 1092 1
1089 1638 1
1089 1703 1
1089 1704 1
1089 1707 1
1090 1091 1
1090 1092 1
1090 1093 1
1091 1092 1
1091 1093 1
1091 1094 1
1091 1096 1
1092 1093 1
1092 1704 1
1092 1707 1
1092 1708 1
1093 1094 1
1093 1096 1
1093 1642 1
1093 1707 1
1093 1708 1
1093 1711 1
1094 1095 1
1094 1096 1
1094 1097 1
1095 1096 1
1095 1097 1
1095 1098 1
1095 1100 1
1096 1097 1
1096 1708 1
1096 1711 1
1096 1712 1
1097 1098 1
1097 1100 1
1097 1646 1
1097 1711 1
1097 1712 1
1097 1715 1
1098 1099 1
1098 1100 1
1098 1101 1
1099 1100 1
1099 1101 1
1099 1102 1
1099 1104 1
1100 1101 1
1100 1712 1
1100 1715 1
1100 1716 1
1101 1102 1
1101 1104 1
1101 1650 1
1101 1715 1
1101 1716 1
1101 1719 1
1102 1103 1
1102 1104 1
1102 1105 1
1103 1104 1
1103 1105 1
1103 1106 1
1103 1108 1
1104 1105 1
1104 1716 1
1104 1719 1
1104 1720 1
1105 1106 1
1105 1108 1
1105 1654 1
1105 1719 1
1105 1720 1
1105 1723 1
1106 1107 1
1106 1108 1
1106 1109 1
1107 1108 1
1107 1109 1
1107 1110 1
1107 1112 1
1108 1109 1
1108 1720 1
1108 1723 1
1108 1724 1
1109 1110 1
1109 1112 1
1109 1658 1
1109 1723 1
1109 1724 1
1109 1727 1
1110 1111 1
1110 1112 1
1110 1113 1
1111 1112 1
1111 1113 1
1111 1114 1
1111 1116 1
1112 1113 1
1112 1724 1
1112 1727 1
1112 1728 1
1113 1114 1
1113 1116 1
1113 1662 1
1113 1727 1
1113 1728 1
1113 1731 1
1114 1115 1
1114 1116 1
1114 1117 1
1115 1116 1
1115 1117 1
1115 1118 1
1115 1120 1
1116 1117 1
1116 1728 1
1116 1731 1
1116 1732 1
1117 1118 1
1117 1120 1
1117 1666 1
1117 1731 1
1117 1732 1
1117 1735 1
1118 1119 1
1118 1120 1
1118 1121 1
1119 1120 1
1119 1121 1
1119 1122 1
1119 1124 1
1120 1121 1
1120 1732 1
1120 1735 1
1120 1736 1
1121 1122 1
1121 1124 1
1121 1668 1
1121 1735 1
1121 1736 1
1121 1739 1
1122 1123 1
1122 1124 1
1122 1125 1
1123 1124 1
1123 1125 1
1123 1126 1
1123 1128 1
1124 1125 1
1124 1736 1
1124 1739 1
1124 1740 1
1125 1126 1
1125 1128 1
1125 1670 1
1125 1739 1
1125 1740 1
1125 1743 1
1126 1127 1
1126 1128 1
1126 1129 1
1127 1128 1
1127 1129 1
1127 1130 1
1127 1132 1
1128 1129 1
1128 1740 1
1128 1743 1
1128 1744 1
1129 1130 1
1129 1132 1
1129 1672 1
1129 1743 1
1129 1744 1
1129 1747 1
1130 1131 1
1130 1132 1
1130 1133 1
1131 1132 1
1131 1133 1
1131 1134 1
1131 1136 1
1132 1133 1
1132 1744 1
1132 1747 1
1132 1748 1
1133 1134 1
1133 1136 1
1133 1676 1
1133 1747 1
1133 1748 1
1133 1751 1
1134 1135 1
1134 1136 1
1134 1137 1
1135 1136 1
1135 1137 1
1135 1138 1
1135 1140 1
1136 1137 1
1136 1748 1
1136 1751 1
1136 1752 1
1137 1138 1
1137 1140 1
1137 1680 1
1137 1751 1
1137 1752 1
1137 1755 1
1138 1139 1
1138 1140 1
1138 1141 1
1139 1140 1
1139 1141 1
1139 1142 1
1139 1144 1
1140 1141 1
1140 1752 1
1140 1755 1
1140 1756 1
1141 1142 1
1141 1144 1
1141 1684 1
1141 1755 1
1141 1756 1
1141 1759 1
1142 1143 1
1142 1144 1
1142 1145 1
1143 1144 1
1143 1145 1
1143 1146 1
1143 1148 1
1144 1145 1
1144 1756 1
1144 1759 1
1144 1760 1
1145 1146 1
1145 1148 1
1145 1688 1
1145 1759 1
1145 1760 1
1145 1763 1
1146 1147 1
1146 1148 1
1146 1149 1
1147 1148 1
1147 1149 1
1147 1150 1
1147 1152 1
1148 1149 1
1148 1760 1
1148 1763 1
1148 1764 1
1149 1150 1
1149 1152 1
1149 1692 1
1149 1763 1
1149 1764 1
1149 1767 1
1150 1151 1
1150 1152 1
1150 1153 1
1151 1152 1
1151 1153 1
1151 1154 1
1151 1156 1
1152 1153 1
1152 1764 1
1152 1767 1
1152 1768 1
1153 1154 1
1153 1156 1
1153 1696 1
1153 1767 1
1153 1768 1
1153 1771 1
1154 1155 1
1154 1156 1
1154 1157 1
1155 1156 1
1155 1157 1
1156 1157 1
1156 1768 1
1156 1771 1
1156 1772 1
1157 1700 1
1157 1771 1
1157 1772 1
1158 1159 1
1158 1160 1
1158 1161 1
1159 1160 1
1159 1161 1
1159 1162 1
1159 1164 1
1159 1230 1
1159 1233 1
1159 1234 1
1160 1161 1
1160 1230 1
1160 1233 1
1160 1775 1
1160 1776 1
1160 1847 1
1161 1162 1
1161 1164 1
1161 1775 1
1161 1776 1
1161 1779 1
1162 1163 1
1162 1164 1
1162 1165 1
1163 1164 1
1163 1165 1
1163 1166 1
1163 1168 1
1163 1234 1
1163 1237 1
1163 1238 1
1164 1165 1
1164 1233 1
1164 1234 1
1164 1237 1
1164 1776 1
1164 1779 1
1164 1780 1
1164 1851 1
1165 1166 1
1165 1168 1
1165 1779 1
1165 1780 1
1165 1783 1
1166 1167 1
1166 1168 1
1166 1169 1
1167 1168 1
1167 1169 1
1167 1170 1
1167 1172 1
1167 1238 1
1167 1241 1
1167 1242 1
1168 1169 1
1168 1237 1
1168 1238 1
1168 1241 1
1168 1780 1
1168 1783 1
1168 1784 1
1168 1855 1
1169 1170 1
1169 1172 1
1169 1783 1
1169 1784 1
1169 1787 1
1170 1171 1
1170 1172 1
1170 1173 1
1171 1172 1
1171 1173 1
1171 1174 1
1171 1176 1
1171 1242 1
1171 1245 1
1171 1246 1
1172 1173 1
1172 1241 1
1172 1242 1
1172 1245 1
1172 1784 1
1172 1787 1
1172 1788 1
1172 1859 1
1173 1174 1
1173 1176 1
1173 1787 1
1173 1788 1
1173 1791 1
1174 1175 1
1174 1176 1
1174 1177 1
1175 1176 1
1175 1177 1
1175 1178 1
1175 1180 1
1175 1246 1
1175 1249 1
1175 1250 1
1176 1177 1
1176 1245 1
1176 1246 1
1176 1249 1
1176 1788 1
1176 1791 1
1176 1792 1
1176 1863 1
1177 1178 1
1177 1180 1
1177 1791 1
1177 1792 1
1177 1795 1
1178 1179 1
1178 1180 1
1178 1181 1
1179 1180 1
1179 1181 1
1179 1182 1
1179 1184 1
1179 1250 1
1179 1253 1
1179 1254 1
1180 1181 1
1180 1249 1
1180 1250 1
1180 1253 1
1180 1792 1
1180 1795 1
1180 1796 1
1180 1867 1
1181 1182 1
1181 1184 1
1181 1795 1
1181 1796 1
1181 1799 1
1182 1183 1
1182 1184 1
1182 1185 1
1183 1184 1
1183 1185 1
1183 1186 1
1183 1188 1
1183 1254 1
1183 1257 1
1183 1258 1
1184 1185 1
1184 1253 1
1184 1254 1
1184 1257 1
1184 1796 1
1184 1799 1
1184 1800 1
1184 1871 1
1185 1186 1
1185 1188 1
1185 1799 1
1185 1800 1
1185 1803 1
1186 1187 1
1186 1188 1
1186 1189 1
1187 1188 1
1187 1189 1
1187 1190 1
1187 1192 1
1187 1258 1
1187 1261 1
1187 1262 1
1188 1189 1
1188 1257 1
1188 1258 1
1188 1261 1
1188 1800 1
1188 1803 1
1188 1804 1
1188 1875 1
1189 1190 1
1189 1192 1
1189 1803 1
1189 1804 1
1189 1807 1
1190 1191 1
1190 1192 1
1190 1193 1
1191 1192 1
1191 1193 1
1191 1194 1
1191 1196 1
1191 1262 1
1191 1264 1
1191 1265 1
1192 1193 1
1192 1261 1
1192 1262 1
1192 1264 1
1192 1804 1
1192 1807 1
1192 1808 1
1192 1879 1
1193 1194 1
1193 1196 1
1193 1807 1
1193 1808 1
1193 1811 1
1194 1195 1
1194 1196 1
1194 1197 1
1195 1196 1
1195 1197 1
1195 1198 1
1195 1200 1
1195 1265 1
1195 1266 1
1195 1267 1
1196 1197 1
1196 1264 1
1196 1265 1
1196 1266 1
1196 1808 1
1196 1811 1
1196 1812 1
1196 1882 1
1197 1198 1
1197 1200 1
1197 1811 1
1197 1812 1
1197 1815 1
1198 1199 1
1198 1200 1
1198 1201 1
1199 1200 1
1199 1201 1
1199 1202 1
1199 1204 1
1199 1267 1
1199 1270 1
1199 1271 1
1200 1201 1
1200 1266 1
1200 1267 1
1200 1270 1
1200 1812 1
1200 1815 1
1200 1816 1
1200 1884 1
1201 1202 1
1201 1204 1
1201 1815 1
1201 1816 1
1201 1819 1
1202 1203 1
1202 1204 1
1202 1205 1
1203 1204 1
1203 1205 1
1203 1206 1
1203 1208 1
1203 1271 1
1203 1274 1
1203 1275 1
1204 1205 1
1204 1270 1
1204 1271 1
1204 1274 1
1204 1816 1
1204 1819 1
1204 1820 1
1204 1888 1
1205 1206 1
1205 1208 1
1205 1819 1
1205 1820 1
1205 1823 1
1206 1207 1
1206 1208 1
1206 1209 1
1207 1208 1
1207 1209 1
1207 1210 1
1207 1212 1
1207 1275 1
1207 1278 1
1207 1279 1
1208 1209 1
1208 1274 1
1208 1275 1
1208 1278 1
1208 1820 1
1208 1823 1
1208 1824 1
1208 1892 1
1209 1210 1
1209 1212 1
1209 1823 1
1209 1824 1
1209 1827 1
1210 1211 1
1210 1212 1
1210 1213 1
1211 1212 1
1211 1213 1
1211 1214 1
1211 1216 1
1211 1279 1
1211 1282 1
1211 1283 1
1212 1213 1
1212 1278 1
1212 1279 1
1212 1282 1
1212 1824 1
1212 1827 1
1212 1828 1
1212 1896 1
1213 1214 1
1213 1216 1
1213 1827 1
1213 1828 1
1213 1831 1
1214 1215 1
1214 1216 1
1214 1217 1
1215 1216 1
1215 1217 1
1215 1218 1
1215 1220 1
1215 1283 1
1215 1286 1
1215 1287 1
1216 1217 1
1216 1282 1
1216 1283 1
1216 1286 1
1216 1828 1
1216 1831 1
1216 1832 1
1216 1900 1
1217 1218 1
1217 1220 1
1217 1831 1
1217 1832 1
1217 1835 1
1218 1219 1
1218 1220 1
1218 1221 1
1219 1220 1
1219 1221 1
1219 1222 1
1219 1224 1
1219 1287 1
1219 1290 1
1219 1291 1
1220 1221 1
1220 1286 1
1220 1287 1
1220 1290 1
1220 1832 1
1220 1835 1
1220 1836 1
1220 1904 1
1221 1222 1
1221 1224 1
1221 1835 1
1221 1836 1
1221 1839 1
1222 1223 1
1222 1224 1
1222 1225 1
1223 1224 1
1223 1225 1
1223 1226 1
1223 1228 1
1223 1291 1
1223 1294 1
1223 1295 1
1224 1225 1
1224 1290 1
1224 1291 1
1224 1294 1
1224 1836 1
1224 1839 1
1224 1840 1
1224 1908 1
1225 1226 1
1225 1228 1
1225 1839 1
1225 1840 1
1225 1843 1
1226 1227 1
1226 1228 1
1226 1229 1
1227 1228 1
1227 1229 1
1227 1295 1
1227 1298 1
1228 1229 1
1228 1294 1
1228 1295 1
1228 1298 1
1228 1840 1
1228 1843 1
1228 1844 1
1228 1912 1
1229 1843 1
1229 1844 1
1230 1231 1
1230 1232 1
1230 1233 1
1231 1232 1
1231 1233 1
1231 1234 1
1231 1236 1
1231 1299 1
1231 1302 1
1231 1303 1
1232 1233 1
1232 1299 1
1232 1302 1
1232 1847 1
1232 1848 1
1232 1916 1
1233 1234 1
1233 1236 1
1233 1776 1
1233 1847 1
1233 1848 1
1233 1851 1
1234 1235 1
1234 1236 1
1234 1237 1
1235 1236 1
1235 1237 1
1235 1238 1
1235 1240 1
1235 1303 1
1235 1306 1
1235 1307 1
1236 1237 1
1236 1302 1
1236 1303 1
1236 1306 1
1236 1848 1
1236 1851 1
1236 1852 1
1236 1920 1
1237 1238 1
1237 1240 1
1237 1780 1
1237 1851 1
1237 1852 1
1237 1855 1
1238 1239 1
1238 1240 1
1238 1241 1
1239 1240 1
1239 1241 1
1239 1242 1
1239 1244 1
1239 1307 1
1239 1310 1
1239 1311 1
1240 1241 1
1240 1306 1
1240 1307 1
1240 1310 1
1240 1852 1
1240 1855 1
1240 1856 1
1240 1924 1
1241 1242 1
1241 1244 1
1241 1784 1
1241 1855 1
1241 1856 1
1241 1859 1
1242 1243 1
1242 1244 1
1242 1245 1
1243 1244 1
1243 1245 1
1243 1246 1
1243 1248 1
1243 1311 1
1243 1314 1
1243 1315 1
1244 1245 1
1244 1310 1
1244 1311 1
1244 1314 1
1244 1856 1
1244 1859 1
1244 1860 1
1244 1928 1
1245 1246 1
1245 1248 1
1245 1788 1
1245 1859 1
1245 1860 1
1245 1863 1
1246 1247 1
1246 1248 1
1246 1249 1
1247 1248 1
1247 1249 1
1247 1250 1
1247 1252 1
1247 1315 1
1247 1318 1
1247 1319 1
1248 1249 1
1248 1314 1
1248 1315 1
1248 1318 1
1248 1860 1
1248 1863 1
1248 1864 1
1248 1932 1
1249 1250 1
1249 1252 1
1249 1792 1
1249 1863 1
1249 1864 1
1249 1867 1
1250 1251 1
1250 1252 1
1250 1253 1
1251 1252 1
1251 1253 1
1251 1254 1
1251 1256 1
1251 1319 1
1251 1321 1
1251 1322 1
1252 1253 1
1252 1318 1
1252 1319 1
1252 1321 1
1252 1864 1
1252 1867 1
1252 1868 1
1252 1936 1
1253 1254 1
1253 1256 1
1253 1796 1
1253 1867 1
1253 1868 1
1253 1871 1
1254 1255 1
1254 1256 1
1254 1257 1
1255 1256 1
1255 1257 1
1255 1258 1
1255 1260 1
1255 1322 1
1256 1257 1
1256 1321 1
1256 1322 1
1256 1868 1
1256 1871 1
1256 1872 1
1256 1939 1
1257 1258 1
1257 1260 1
1257 1800 1
1257 1871 1
1257 1872 1
1257 1875 1
1258 1259 1
1258 1260 1
1258 1261 1
1259 1260 1
1259 1261 1
1259 1262 1
1259 1263 1
1260 1261 1
1260 1872 1
1260 1875 1
1260 1876 1
1261 1262 1
1261 1263 1
1261 1804 1
1261 1875 1
1261 1876 1
1261 1879 1
1262 1263 1
1262 1264 1
1263 1264 1
1263 1876 1
1263 1879 1
1264 1265 1
1264 1808 1
1264 1879 1
1264 1882 1
1265 1266 1
1266 1267 1
1266 1269 1
1266 1812 1
1266 1882 1
1266 1884 1
1267 1268 1
1267 1269 1
1267 1270 1
1268 1269 1
1268 1270 1
1268 1271 1
1268 1273 1
1269 1270 1
1269 1884 1
1269 1885 1
1270 1271 1
1270 1273 1
1270 1816 1
1270 1884 1
1270 1885 1
1270 1888 1
1271 1272 1
1271 1273 1
1271 1274 1
1272 1273 1
1272 1274 1
1272 1275 1
1272 1277 1
1272 1323 1
1273 1274 1
1273 1885 1
1273 1888 1
1273 1889 1
1274 1275 1
1274 1277 1
1274 1820 1
1274 1888 1
1274 1889 1
1274 1892 1
1275 1276 1
1275 1277 1
1275 1278 1
1276 1277 1
1276 1278 1
1276 1279 1
1276 1281 1
1276 1323 1
1276 1324 1
1276 1325 1
1277 1278 1
1277 1323 1
1277 1324 1
1277 1889 1
1277 1892 1
1277 1893 1
1277 1940 1
1278 1279 1
1278 1281 1
1278 1824 1
1278 1892 1
1278 1893 1
1278 1896 1
1279 1280 1
1279 1281 1
1279 1282 1
1280 1281 1
1280 1282 1
1280 1283 1
1280 1285 1
1280 1325 1
1280 1328 1
1280 1329 1
1281 1282 1
1281 1324 1
1281 1325 1
1281 1328 1
1281 1893 1
1281 1896 1
1281 1897 1
1281 1942 1
1282 1283 1
1282 1285 1
1282 1828 1
1282 1896 1
1282 1897 1
1282 1900 1
1283 1284 1
1283 1285 1
1283 1286 1
1284 1285 1
1284 1286 1
1284 1287 1
1284 1289 1
1284 1329 1
1284 1332 1
1284 1333 1
1285 1286 1
1285 1328 1
1285 1329 1
1285 1332 1
1285 1897 1
1285 1900 1
1285 1901 1
1285 1946 1
1286 1287 1
1286 1289 1
1286 1832 1
1286 1900 1
1286 1901 1
1286 1904 1
1287 1288 1
1287 1289 1
1287 1290 1
1288 1289 1
1288 1290 1
1288 1291 1
1288 1293 1
1288 1333 1
1288 1336 1
1288 1337 1
1289 1290 1
1289 1332 1
1289 1333 1
1289 1336 1
1289 1901 1
1289 1904 1
1289 1905 1
1289 1950 1
1290 1291 1
1290 1293 1
1290 1836 1
1290 1904 1
1290 1905 1
1290 1908 1
1291 1292 1
1291 1293 1
1291 1294 1
1292 1293 1
1292 1294 1
1292 1295 1
1292 1297 1
1292 1337 1
1292 1340 1
1292 1341 1
1293 1294 1
1293 1336 1
1293 1337 1
1293 1340 1
1293 1905 1
1293 1908 1
1293 1909 1
1293 1954 1
1294 1295 1
1294 1297 1
1294 1840 1
1294 1908 1
1294 1909 1
1294 1912 1
1295 1296 1
1295 1297 1
1295 1298 1
1296 1297 1
1296 1298 1
1296 1341 1
1296 1344 1
1297 1298 1
1297 1340 1
1297 1341 1
1297 1344 1
1297 1909 1
1297 1912 1
1297 1913 1
1297 1958 1
1298 1844 1
1298 1912 1
1298 1913 1
1299 1300 1
1299 1301 1
1299 1302 1
1300 1301 1
1300 1302 1
1300 1303 1
1300 1305 1
1300 1345 1
1300 1348 1
1300 1349 1
1301 1302 1
1301 1345 1
1301 1348 1
1301 1916 1
1301 1917 1
1301 1962 1
1302 1303 1
1302 1305 1
1302 1848 1
1302 1916 1
1302 1917 1
1302 1920 1
1303 1304 1
1303 1305 1
1303 1306 1
1304 1305 1
1304 1306 1
1304 1307 1
1304 1309 1
1304 1349 1
1304 1352 1
1304 1353 1
1305 1306 1
1305 1348 1
1305 1349 1
1305 1352 1
1305 1917 1
1305 1920 1
1305 1921 1
1305 1966 1
1306 1307 1
1306 1309 1
1306 1852 1
1306 1920 1
1306 1921 1
1306 1924 1
1307 1308 1
1307 1309 1
1307 1310 1
1308 1309 1
1308 1310 1
1308 1311 1
1308 1313 1
1308 1353 1
1308 1356 1
1308 1357 1
1309 1310 1
1309 1352 1
1309 1353 1
1309 1356 1
1309 1921 1
1309 1924 1
1309 1925 1
1309 1970 1
1310 1311 1
1310 1313 1
1310 1856 1
1310 1924 1
1310 1925 1
1310 1928 1
1311 1312 1
1311 1313 1
1311 1314 1
1312 1313 1
1312 1314 1
1312 1315 1
1312 1317 1
1312 1357 1
1312 1360 1
1312 1361 1
1313 1314 1
1313 1356 1
1313 1357 1
1313 1360 1
1313 1925 1
1313 1928 1
1313 1929 1
1313 1974 1
1314 1315 1
1314 1317 1
1314 1860 1
1314 1928 1
1314 1929 1
1314 1932 1
1315 1316 1
1315 1317 1
1315 1318 1
1316 1317 1
1316 1318 1
1316 1319 1
1316 1320 1
1316 1361 1
1317 1318 1
1317 1360 1
1317 1361 1
1317 1929 1
1317 1932 1
1317 1933 1
1317 1978 1
1318 1319 1
1318 1320 1
1318 1864 1
1318 1932 1
1318 1933 1
1318 1936 1
1319 1320 1
1319 1321 1
1320 1321 1
1320 1933 1
1320 1936 1
1321 1322 1
1321 1868 1
1321 1936 1
1321 1939 1
1323 1324 1
1324 1325 1
1324 1327 1
1324 1893 1
1324 1940 1
1324 1942 1
1325 1326 1
1325 1327 1
1325 1328 1
1326 1327 1
1326 1328 1
1326 1329 1
1326 1331 1
1326 1362 1
1326 1363 1
1327 1328 1
1327 1362 1
1327 1942 1
1327 1943 1
1328 1329 1
1328 1331 1
1328 1897 1
1328 1942 1
1328 1943 1
1328 1946 1
1329 1330 1
1329 1331 1
1329 1332 1
1330 1331 1
1330 1332 1
1330 1333 1
1330 1335 1
1330 1363 1
1330 1366 1
1330 1367 1
1331 1332 1
1331 1362 1
1331 1363 1
1331 1366 1
1331 1943 1
1331 1946 1
1331 1947 1
1331 1980 1
1332 1333 1
1332 1335 1
1332 1901 1
1332 1946 1
1332 1947 1
1332 1950 1
1333 1334 1
1333 1335 1
1333 1336 1
1334 1335 1
1334 1336 1
1334 1337 1
1334 1339 1
1334 1367 1
1334 1370 1
1334 1371 1
1335 1336 1
1335 1366 1
1335 1367 1
1335 1370 1
1335 1947 1
1335 1950 1
1335 1951 1
1335 1984 1
1336 1337 1
1336 1339 1
1336 1905 1
1336 1950 1
1336 1951 1
1336 1954 1
1337 1338 1
1337 1339 1
1337 1340 1
1338 1339 1
1338 1340 1
1338 1341 1
1338 1343 1
1338 1371 1
1338 1374 1
1338 1375 1
1339 1340 1
1339 1370 1
1339 1371 1
1339 1374 1
1339 1951 1
1339 1954 1
1339 1955 1
1339 1988 1
1340 1341 1
1340 1343 1
1340 1909 1
1340 1954 1
1340 1955 1
1340 1958 1
1341 1342 1
1341 1343 1
1341 1344 1
1342 1343 1
1342 1344 1
1342 1375 1
1342 1378 1
1343 1344 1
1343 1374 1
1343 1375 1
1343 1378 1
1343 1955 1
1343 1958 1
1343 1959 1
1343 1992 1
1344 1913 1
1344 1958 1
1344 1959 1
1345 1346 1
1345 1347 1
1345 1348 1
1346 1347 1
1346 1348 1
1346 1349 1
1346 1351 1
1346 1379 1
1346 1382 1
1346 1383 1
1347 1348 1
1347 1379 1
1347 1382 1
1347 1962 1
1347 1963 1
1347 1996 1
1348 1349 1
1348 1351 1
1348 1917 1
1348 1962 1
1348 1963 1
1348 1966 1
1349 1350 1
1349 1351 1
1349 1352 1
1350 1351 1
1350 1352 1
1350 1353 1
1350 1355 1
1350 1383 1
1350 1386 1
1350 1387 1
1351 1352 1
1351 1382 1
1351 1383 1
1351 1386 1
1351 1963 1
1351 1966 1
1351 1967 1
1351 2000 1
1352 1353 1
1352 1355 1
1352 1921 1
1352 1966 1
1352 1967 1
1352 1970 1
1353 1354 1
1353 1355 1
1353 1356 1
1354 1355 1
1354 1356 1
1354 1357 1
1354 1359 1
1354 1387 1
1354 1390 1
1354 1391 1
1355 1356 1
1355 1386 1
1355 1387 1
1355 1390 1
1355 1967 1
1355 1970 1
1355 1971 1
1355 2004 1
1356 1357 1
1356 1359 1
1356 1925 1
1356 1970 1
1356 1971 1
1356 1974 1
1357 1358 1
1357 1359 1
1357 1360 1
1358 1359 1
1358 1360 1
1358 1361 1
1358 1391 1
1359 1360 1
1359 1390 1
1359 1391 1
1359 1971 1
1359 1974 1
1359 1975 1
1359 2008 1
1360 1361 1
1360 1929 1
1360 1974 1
1360 1975 1
1360 1978 1
1362 1363 1
1362 1365 1
1362 1943 1
1362 1980 1
1363 1364 1
1363 1365 1
1363 1366 1
1364 1365 1
1364 1366 1
1364 1367 1
1364 1369 1
1364 1392 1
1364 1393 1
1365 1366 1
1365 1392 1
1365 1980 1
1365 1981 1
1366 1367 1
1366 1369 1
1366 1947 1
1366 1980 1
1366 1981 1
1366 1984 1
1367 1368 1
1367 1369 1
1367 1370 1
1368 1369 1
1368 1370 1
1368 1371 1
1368 1373 1
1368 1393 1
1368 1396 1
1368 1397 1
1369 1370 1
1369 1392 1
1369 1393 1
1369 1396 1
1369 1981 1
1369 1984 1
1369 1985 1
1369 2010 1
1370 1371 1
1370 1373 1
1370 1951 1
1370 1984 1
1370 1985 1
1370 1988 1
1371 1372 1
1371 1373 1
1371 1374 1
1372 1373 1
1372 1374 1
1372 1375 1
1372 1377 1
1372 1397 1
1372 1400 1
1372 1401 1
1373 1374 1
1373 1396 1
1373 1397 1
1373 1400 1
1373 1985 1
1373 1988 1
1373 1989 1
1373 2014 1
1374 1375 1
1374 1377 1
1374 1955 1
1374 1988 1
1374 1989 1
1374 1992 1
1375 1376 1
1375 1377 1
1375 1378 1
1376 1377 1
1376 1378 1
1376 1401 1
1376 1404 1
1377 1378 1
1377 1400 1
1377 1401 1
1377 1404 1
1377 1989 1
1377 1992 1
1377 1993 1
1377 2018 1
1378 1959 1
1378 1992 1
1378 1993 1
1379 1380 1
1379 1381 1
1379 1382 1
1380 1381 1
1380 1382 1
1380 1383 1
1380 1385 1
1380 1405 1
1380 1408 1
1380 1409 1
1381 1382 1
1381 1405 1
1381 1408 1
1381 1996 1
1381 1997 1
1381 2022 1
1382 1383 1
1382 1385 1
1382 1963 1
1382 1996 1
1382 1997 1
1382 2000 1
1383 1384 1
1383 1385 1
1383 1386 1
1384 1385 1
1384 1386 1
1384 1387 1
1384 1389 1
1384 1409 1
1384 1412 1
1384 1413 1
1385 1386 1
1385 1408 1
1385 1409 1
1385 1412 1
1385 1997 1
1385 2000 1
1385 2001 1
1385 2026 1
1386 1387 1
1386 1389 1
1386 1967 1
1386 2000 1
1386 2001 1
1386 2004 1
1387 1388 1
1387 1389 1
1387 1390 1
1388 1389 1
1388 1390 1
1388 1391 1
1388 1413 1
1388 1415 1
1389 1390 1
1389 1412 1
1389 1413 1
1389 1415 1
1389 2001 1
1389 2004 1
1389 2005 1
1389 2030 1
1390 1391 1
1390 1971 1
1390 2004 1
1390 2005 1
1390 2008 1
1392 1393 1
1392 1395 1
1392 1981 1
1392 2010 1
1393 1394 1
1393 1395 1
1393 1396 1
1394 1395 1
1394 1396 1
1394 1397 1
1394 1399 1
1394 1417 1
1394 1418 1
1395 1396 1
1395 1417 1
1395 2010 1
1395 2011 1
1396 1397 1
1396 1399 1
1396 1985 1
1396 2010 1
1396 2011 1
1396 2014 1
1397 1398 1
1397 1399 1
1397 1400 1
1398 1399 1
1398 1400 1
1398 1401 1
1398 1403 1
1398 1418 1
1398 1421 1
1398 1422 1
1399 1400 1
1399 1417 1
1399 1418 1
1399 1421 1
1399 2011 1
1399 2014 1
1399 2015 1
1399 2035 1
1400 1401 1
1400 1403 1
1400 1989 1
1400 2014 1
1400 2015 1
1400 2018 1
1401 1402 1
1401 1403 1
1401 1404 1
1402 1403 1
1402 1404 1
1402 1422 1
1402 1425 1
1403 1404 1
1403 1421 1
1403 1422 1
1403 1425 1
1403 2015 1
1403 2018 1
1403 2019 1
1403 2039 1
1404 1993 1
1404 2018 1
1404 2019 1
1405 1406 1
1405 1407 1
1405 1408 1
1406 1407 1
1406 1408 1
1406 1409 1
1406 1411 1
1406 1426 1
1406 1429 1
1406 1430 1
1407 1408 1
1407 1426 1
1407 1429 1
1407 2022 1
1407 2023 1
1407 2043 1
1408 1409 1
1408 1411 1
1408 1997 1
1408 2022 1
1408 2023 1
1408 2026 1
1409 1410 1
1409 1411 1
1409 1412 1
1410 1411 1
1410 1412 1
1410 1413 1
1410 1414 1
1410 1430 1
1410 1433 1
1410 1434 1
1411 1412 1
1411 1429 1
1411 1430 1
1411 1433 1
1411 2023 1
1411 2026 1
1411 2027 1
1411 2047 1
1412 1413 1
1412 1414 1
1412 2001 1
1412 2026 1
1412 2027 1
1412 2030 1
1413 1414 1
1413 1415 1
1414 1415 1
1414 1433 1
1414 1434 1
1414 2027 1
1414 2030 1
1414 2051 1
1415 2005 1
1415 2030 1
1416 1417 1
1416 1418 1
1416 1420 1
1416 1435 1
1417 1418 1
1417 1420 1
1417 2011 1
1417 2033 1
1417 2035 1
1418 1419 1
1418 1420 1
1418 1421 1
1419 1420 1
1419 1421 1
1419 1422 1
1419 1424 1
1419 1435 1
1419 1438 1
1419 1439 1
1420 1421 1
1420 1435 1
1420 1438 1
1420 2033 1
1420 2035 1
1420 2036 1
1420 2052 1
1421 1422 1
1421 1424 1
1421 2015 1
1421 2035 1
1421 2036 1
1421 2039 1
1422 1423 1
1422 1424 1
1422 1425 1
1423 1424 1
1423 1425 1
1423 1439 1
1423 1442 1
1424 1425 1
1424 1438 1
1424 1439 1
1424 1442 1
1424 2036 1
1424 2039 1
1424 2040 1
1424 2056 1
1425 2019 1
1425 2039 1
1425 2040 1
1426 1427 1
1426 1428 1
1426 1429 1
1427 1428 1
1427 1429 1
1427 1430 1
1427 1432 1
1427 1443 1
1427 1446 1
1427 1447 1
1428 1429 1
1428 1443 1
1428 1446 1
1428 2043 1
1428 2044 1
1428 2060 1
1429 1430 1
1429 1432 1
1429 2023 1
1429 2043 1
1429 2044 1
1429 2047 1
1430 1431 1
1430 1432 1
1430 1433 1
1431 1432 1
1431 1433 1
1431 1434 1
1431 1447 1
1431 1450 1
1432 1433 1
1432 1446 1
1432 1447 1
1432 1450 1
1432 2044 1
1432 2047 1
1432 2048 1
1432 2064 1
1433 1434 1
1433 2027 1
1433 2047 1
1433 2048 1
1433 2051 1
1435 1436 1
1435 1437 1
1435 1438 1
1436 1437 1
1436 1438 1
1436 1439 1
1436 1441 1
1436 1451 1
1436 1453 1
1436 1454 1
1437 1438 1
1437 1451 1
1437 1453 1
1437 2052 1
1437 2053 1
1437 2068 1
1438 1439 1
1438 1441 1
1438 2036 1
1438 2052 1
1438 2053 1
1438 2056 1
1439 1440 1
1439 1441 1
1439 1442 1
1440 1441 1
1440 1442 1
1440 1454 1
1440 1457 1
1441 1442 1
1441 1453 1
1441 1454 1
1441 1457 1
1441 2053 1
1441 2056 1
1441 2057 1
1441 2071 1
1442 2040 1
1442 2056 1
1442 2057 1
1443 1444 1
1443 1445 1
1443 1446 1
1444 1445 1
1444 1446 1
1444 1447 1
1444 1449 1
1444 1458 1
1444 1461 1
1444 1462 1
1445 1446 1
1445 1458 1
1445 1461 1
1445 2060 1
1445 2061 1
1445 2075 1
1446 1447 1
1446 1449 1
1446 2044 1
1446 2060 1
1446 2061 1
1446 2064 1
1447 1448 1
1447 1449 1
1447 1450 1
1448 1449 1
1448 1450 1
1448 1462 1
1448 1464 1
1449 1450 1
1449 1461 1
1449 1462 1
1449 1464 1
1449 2061 1
1449 2064 1
1449 2065 1
1449 2079 1
1450 2048 1
1450 2064 1
1450 2065 1
1451 1452 1
1451 1453 1
1452 1453 1
1452 1454 1
1452 1456 1
1452 1466 1
1452 1467 1
1453 1454 1
1453 1456 1
1453 2053 1
1453 2068 1
1453 2069 1
1453 2071 1
1454 1455 1
1454 1456 1
1454 1457 1
1455 1456 1
1455 1457 1
1455 1467 1
1455 1470 1
1456 1457 1
1456 1466 1
1456 1467 1
1456 1470 1
1456 2069 1
1456 2071 1
1456 2072 1
1456 2084 1
1457 2057 1
1457 2071 1
1457 2072 1
1458 1459 1
1458 1460 1
1458 1461 1
1459 1460 1
1459 1461 1
1459 1462 1
1459 1463 1
1459 1471 1
1459 1474 1
1459 1475 1
1460 1461 1
1460 1471 1
1460 1474 1
1460 2075 1
1460 2076 1
1460 2088 1
1461 1462 1
1461 1463 1
1461 2061 1
1461 2075 1
1461 2076 1
1461 2079 1
1462 1463 1
1462 1464 1
1463 1464 1
1463 1474 1
1463 1475 1
1463 2076 1
1463 2079 1
1463 2092 1
1464 2065 1
1464 2079 1
1465 1466 1
1465 1467 1
1465 1469 1
1465 1478 1
1465 1479 1
1466 1467 1
1466 1469 1
1466 2069 1
1466 2082 1
1466 2084 1
1467 1468 1
1467 1469 1
1467 1470 1
1468 1469 1
1468 1470 1
1468 1479 1
1468 1482 1
1469 1470 1
1469 1478 1
1469 1479 1
1469 1482 1
1469 2082 1
1469 2084 1
1469 2085 1
1469 2096 1
1470 2072 1
1470 2084 1
1470 2085 1
1471 1472 1
1471 1473 1
1471 1474 1
1472 1473 1
1472 1474 1
1472 1475 1
1472 1476 1
1472 1483 1
1472 1486 1
1472 1487 1
1473 1474 1
1473 1483 1
1473 1486 1
1473 2088 1
1473 2089 1
1473 2100 1
1474 1475 1
1474 1476 1
1474 2076 1
1474 2088 1
1474 2089 1
1474 2092 1
1475 1476 1
1476 1486 1
1476 1487 1
1476 1490 1
1476 2089 1
1476 2092 1
1476 2104 1
1477 1478 1
1477 1479 1
1477 1481 1
1477 1493 1
1477 1494 1
1478 1479 1
1478 1481 1
1478 2082 1
1478 2094 1
1478 2096 1
1479 1480 1
1479 1481 1
1479 1482 1
1480 1481 1
1480 1482 1
1480 1494 1
1480 1497 1
1481 1482 1
1481 1493 1
1481 1494 1
1481 1497 1
1481 2094 1
1481 2096 1
1481 2097 1
1481 2111 1
1482 2085 1
1482 2096 1
1482 2097 1
1483 1484 1
1483 1485 1
1483 1486 1
1484 1485 1
1484 1486 1
1484 1487 1
1484 1489 1
1484 1498 1
1484 1501 1
1484 1502 1
1485 1486 1
1485 1498 1
1485 1501 1
1485 2100 1
1485 2101 1
1485 2115 1
1486 1487 1
1486 1489 1
1486 2089 1
1486 2100 1
1486 2101 1
1486 2104 1
1487 1488 1
1487 1489 1
1487 1490 1
1488 1489 1
1488 1490 1
1488 1502 1
1488 1505 1
1489 1490 1
1489 1501 1
1489 1502 1
1489 1505 1
1489 2101 1
1489 2104 1
1489 2105 1
1489 2119 1
1490 2104 1
1490 2105 1
1491 1492 1
1491 1493 1
1491 1494 1
1491 1496 1
1491 1506 1
1491 1509 1
1491 1510 1
1492 1493 1
1492 1506 1
1492 1509 1
1492 2108 1
1492 2123 1
1493 1494 1
1493 1496 1
1493 2094 1
1493 2108 1
1493 2111 1
1494 1495 1
1494 1496 1
1494 1497 1
1495 1496 1
1495 1497 1
1495 1510 1
1495 1513 1
1496 1497 1
1496 1509 1
1496 1510 1
1496 1513 1
1496 2108 1
1496 2111 1
1496 2112 1
1496 2127 1
1497 2097 1
1497 2111 1
1497 2112 1
1498 1499 1
1498 1500 1
1498 1501 1
1499 1500 1
1499 1501 1
1499 1502 1
1499 1504 1
1499 1514 1
1499 1517 1
1499 1518 1
1500 1501 1
1500 1514 1
1500 1517 1
1500 2115 1
1500 2116 1
1500 2131 1
1501 1502 1
1501 1504 1
1501 2101 1
1501 2115 1
1501 2116 1
1501 2119 1
1502 1503 1
1502 1504 1
1502 1505 1
1503 1504 1
1503 1505 1
1503 1518 1
1503 1521 1
1503 1522 1
1504 1505 1
1504 1517 1
1504 1518 1
1504 1521 1
1504 2116 1
1504 2119 1
1504 2120 1
1504 2135 1
1505 2105 1
1505 2119 1
1505 2120 1
1506 1507 1
1506 1508 1
1506 1509 1
1507 1508 1
1507 1509 1
1507 1510 1
1507 1512 1
1507 1526 1
1507 1529 1
1507 1530 1
1508 1509 1
1508 1525 1
1508 1526 1
1508 1529 1
1508 2123 1
1508 2124 1
1508 2143 1
1509 1510 1
1509 1512 1
1509 2108 1
1509 2123 1
1509 2124 1
1509 2127 1
1510 1511 1
1510 1512 1
1510 1513 1
1511 1512 1
1511 1513 1
1511 1530 1
1511 1533 1
1512 1513 1
1512 1529 1
1512 1530 1
1512 1533 1
1512 2124 1
1512 2127 1
1512 2128 1
1512 2147 1
1513 2112 1
1513 2127 1
1513 2128 1
1514 1515 1
1514 1516 1
1514 1517 1
1515 1516 1
1515 1517 1
1515 1518 1
1515 1520 1
1515 1534 1
1515 1537 1
1515 1538 1
1516 1517 1
1516 1534 1
1516 1537 1
1516 2131 1
1516 2132 1
1516 2151 1
1517 1518 1
1517 1520 1
1517 2116 1
1517 2131 1
1517 2132 1
1517 2135 1
1518 1519 1
1518 1520 1
1518 1521 1
1519 1520 1
1519 1521 1
1519 1522 1
1519 1523 1
1519 1538 1
1519 1541 1
1519 1542 1
1520 1521 1
1520 1537 1
1520 1538 1
1520 1541 1
1520 2132 1
1520 2135 1
1520 2136 1
1520 2155 1
1521 1522 1
1521 1523 1
1521 2120 1
1521 2135 1
1521 2136 1
1521 2139 1
1522 1523 1
1523 1541 1
1523 1542 1
1523 1545 1
1523 2136 1
1523 2139 1
1523 2159 1
1524 1525 1
1524 1526 1
1524 1528 1
1524 1548 1
1524 1551 1
1524 1552 1
1525 1526 1
1525 1528 1
1525 2141 1
1525 2143 1
1526 1527 1
1526 1528 1
1526 1529 1
1527 1528 1
1527 1529 1
1527 1530 1
1527 1532 1
1527 1552 1
1527 1555 1
1527 1556 1
1528 1529 1
1528 1551 1
1528 1552 1
1528 1555 1
1528 2141 1
1528 2143 1
1528 2144 1
1528 2169 1
1529 1530 1
1529 1532 1
1529 2124 1
1529 2143 1
1529 2144 1
1529 2147 1
1530 1531 1
1530 1532 1
1530 1533 1
1531 1532 1
1531 1533 1
1531 1556 1
1531 1559 1
1532 1533 1
1532 1555 1
1532 1556 1
1532 1559 1
1532 2144 1
1532 2147 1
1532 2148 1
1532 2173 1
1533 2128 1
1533 2147 1
1533 2148 1
1534 1535 1
1534 1536 1
1534 1537 1
1535 1536 1
1535 1537 1
1535 1538 1
1535 1540 1
1535 1560 1
1535 1563 1
1535 1564 1
1536 1537 1
1536 1560 1
1536 1563 1
1536 2151 1
1536 2152 1
1536 2177 1
1537 1538 1
1537 1540 1
1537 2132 1
1537 2151 1
1537 2152 1
1537 2155 1
1538 1539 1
1538 1540 1
1538 1541 1
1539 1540 1
1539 1541 1
1539 1542 1
1539 1544 1
1539 1564 1
1539 1567 1
1539 1568 1
1540 1541 1
1540 1563 1
1540 1564 1
1540 1567 1
1540 2152 1
1540 2155 1
1540 2156 1
1540 2181 1
1541 1542 1
1541 1544 1
1541 2136 1
1541 2155 1
1541 2156 1
1541 2159 1
1542 1543 1
1542 1544 1
1542 1545 1
1543 1544 1
1543 1545 1
1543 1546 1
1543 1568 1
1543 1571 1
1543 1572 1
1544 1545 1
1544 1567 1
1544 1568 1
1544 1571 1
1544 2156 1
1544 2159 1
1544 2160 1
1544 2185 1
1545 1546 1
1545 2159 1
1545 2160 1
1546 1571 1
1546 1572 1
1546 1575 1
1546 2160 1
1546 2189 1
1547 1548 1
1547 1550 1
1547 1580 1
1547 1581 1
1548 1549 1
1548 1550 1
1548 1551 1
1549 1550 1
1549 1551 1
1549 1552 1
1549 1554 1
1549 1581 1
1549 1584 1
1549 1585 1
1550 1551 1
1550 1580 1
1550 1581 1
1550 1584 1
1550 2164 1
1550 2165 1
1550 2166 1
1550 2198 1
1551 1552 1
1551 1554 1
1551 2141 1
1551 2165 1
1551 2166 1
1551 2169 1
1552 1553 1
1552 1554 1
1552 1555 1
1553 1554 1
1553 1555 1
1553 1556 1
1553 1558 1
1553 1585 1
1553 1588 1
1553 1589 1
1554 1555 1
1554 1584 1
1554 1585 1
1554 1588 1
1554 2166 1
1554 2169 1
1554 2170 1
1554 2202 1
1555 1556 1
1555 1558 1
1555 2144 1
1555 2169 1
1555 2170 1
1555 2173 1
1556 1557 1
1556 1558 1
1556 1559 1
1557 1558 1
1557 1559 1
1557 1589 1
1557 1592 1
1558 1559 1
1558 1588 1
1558 1589 1
1558 1592 1
1558 2170 1
1558 2173 1
1558 2174 1
1558 2206 1
1559 2148 1
1559 2173 1
1559 2174 1
1560 1561 1
1560 1562 1
1560 1563 1
1561 1562 1
1561 1563 1
1561 1564 1
1561 1566 1
1561 1593 1
1561 1596 1
1561 1597 1
1562 1563 1
1562 1593 1
1562 1596 1
1562 2177 1
1562 2178 1
1562 2210 1
1563 1564 1
1563 1566 1
1563 2152 1
1563 2177 1
1563 2178 1
1563 2181 1
1564 1565 1
1564 1566 1
1564 1567 1
1565 1566 1
1565 1567 1
1565 1568 1
1565 1570 1
1565 1597 1
1565 1600 1
1565 1601 1
1566 1567 1
1566 1596 1
1566 1597 1
1566 1600 1
1566 2178 1
1566 2181 1
1566 2182 1
1566 2214 1
1567 1568 1
1567 1570 1
1567 2156 1
1567 2181 1
1567 2182 1
1567 2185 1
1568 1569 1
1568 1570 1
1568 1571 1
1569 1570 1
1569 1571 1
1569 1572 1
1569 1574 1
1569 1601 1
1569 1604 1
1569 1605 1
1570 1571 1
1570 1600 1
1570 1601 1
1570 1604 1
1570 2182 1
1570 2185 1
1570 2186 1
1570 2218 1
1571 1572 1
1571 1574 1
1571 2160 1
1571 2185 1
1571 2186 1
1571 2189 1
1572 1573 1
1572 1574 1
1572 1575 1
1573 1574 1
1573 1575 1
1573 1576 1
1573 1605 1
1573 1608 1
1573 1609 1
1574 1575 1
1574 1604 1
1574 1605 1
1574 1608 1
1574 2186 1
1574 2189 1
1574 2190 1
1574 2222 1
1575 1576 1
1575 2189 1
1575 2190 1
1576 1608 1
1576 1609 1
1576 1612 1
1576 2190 1
1576 2226 1
1577 1579 1
1577 1617 1
1577 1620 1
1577 1621 1
1578 1579 1
1578 1580 1
1578 1581 1
1578 1583 1
1578 1621 1
1578 1624 1
1578 1625 1
1579 1580 1
1579 1620 1
1579 1621 1
1579 1624 1
1579 2194 1
1579 2195 1
1579 2238 1
1580 1581 1
1580 1583 1
1580 2164 1
1580 2195 1
1580 2198 1
1581 1582 1
1581 1583 1
1581 1584 1
1582 1583 1
1582 1584 1
1582 1585 1
1582 1587 1
1582 1625 1
1582 1628 1
1582 1629 1
1583 1584 1
1583 1624 1
1583 1625 1
1583 1628 1
1583 2195 1
1583 2198 1
1583 2199 1
1583 2242 1
1584 1585 1
1584 1587 1
1584 2166 1
1584 2198 1
1584 2199 1
1584 2202 1
1585 1586 1
1585 1587 1
1585 1588 1
1586 1587 1
1586 1588 1
1586 1589 1
1586 1591 1
1586 1629 1
1586 1632 1
1586 1633 1
1587 1588 1
1587 1628 1
1587 1629 1
1587 1632 1
1587 2199 1
1587 2202 1
1587 2203 1
1587 2246 1
1588 1589 1
1588 1591 1
1588 2170 1
1588 2202 1
1588 2203 1
1588 2206 1
1589 1590 1
1589 1591 1
1589 1592 1
1590 1591 1
1590 1592 1
1590 1633 1
1590 1636 1
1591 1592 1
1591 1632 1
1591 1633 1
1591 1636 1
1591 2203 1
1591 2206 1
1591 2207 1
1591 2250 1
1592 2174 1
1592 2206 1
1592 2207 1
1593 1594 1
1593 1595 1
1593 1596 1
1594 1595 1
1594 1596 1
1594 1597 1
1594 1599 1
1594 1637 1
1594 1640 1
1594 1641 1
1595 1596 1
1595 1637 1
1595 1640 1
1595 2210 1
1595 2211 1
1595 2254 1
1596 1597 1
1596 1599 1
1596 2178 1
1596 2210 1
1596 2211 1
1596 2214 1
1597 1598 1
1597 1599 1
1597 1600 1
1598 1599 1
1598 1600 1
1598 1601 1
1598 1603 1
1598 1641 1
1598 1644 1
1598 1645 1
1599 1600 1
1599 1640 1
1599 1641 1
1599 1644 1
1599 2211 1
1599 2214 1
1599 2215 1
1599 2258 1
1600 1601 1
1600 1603 1
1600 2182 1
1600 2214 1
1600 2215 1
1600 2218 1
1601 1602 1
1601 1603 1
1601 1604 1
1602 1603 1
1602 1604 1
1602 1605 1
1602 1607 1
1602 1645 1
1602 1648 1
1602 1649 1
1603 1604 1
1603 1644 1
1603 1645 1
1603 1648 1
1603 2215 1
1603 2218 1
1603 2219 1
1603 2262 1
1604 1605 1
1604 1607 1
1604 2186 1
1604 2218 1
1604 2219 1
1604 2222 1
1605 1606 1
1605 1607 1
1605 1608 1
1606 1607 1
1606 1608 1
1606 1609 1
1606 1611 1
1606 1649 1
1606 1652 1
1606 1653 1
1607 1608 1
1607 1648 1
1607 1649 1
1607 1652 1
1607 2219 1
1607 2222 1
1607 2223 1
1607 2266 1
1608 1609 1
1608 1611 1
1608 2190 1
1608 2222 1
1608 2223 1
1608 2226 1
1609 1610 1
1609 1611 1
1609 1612 1
1610 1611 1
1610 1612 1
1610 1614 1
1610 1653 1
1610 1656 1
1610 1657 1
1611 1612 1
1611 1652 1
1611 1653 1
1611 1656 1
1611 2223 1
1611 2226 1
1611 2227 1
1611 2270 1
1612 1614 1
1612 2226 1
1612 2227 1
1613 1614 1
1613 1657 1
1613 1660 1
1613 1661 1
1614 1656 1
1614 1657 1
1614 1660 1
1614 2227 1
1614 2230 1
1614 2274 1
1615 1616 1
1615 1617 1
1615 1619 1
1615 1679 1
1615 1682 1
1615 1683 1
1616 1678 1
1616 1679 1
1616 1682 1
1616 2232 1
1616 2296 1
1617 1618 1
1617 1619 1
1617 1620 1
1618 1619 1
1618 1620 1
1618 1621 1
1618 1623 1
1618 1683 1
1618 1686 1
1618 1687 1
1619 1620 1
1619 1682 1
1619 1683 1
1619 1686 1
1619 2232 1
1619 2234 1
1619 2235 1
1619 2300 1
1620 1621 1
1620 1623 1
1620 2194 1
1620 2234 1
1620 2235 1
1620 2238 1
1621 1622 1
1621 1623 1
1621 1624 1
1622 1623 1
1622 1624 1
1622 1625 1
1622 1627 1
1622 1687 1
1622 1690 1
1622 1691 1
1623 1624 1
1623 1686 1
1623 1687 1
1623 1690 1
1623 2235 1
1623 2238 1
1623 2239 1
1623 2304 1
1624 1625 1
1624 1627 1
1624 2195 1
1624 2238 1
1624 2239 1
1624 2242 1
1625 1626 1
1625 1627 1
1625 1628 1
1626 1627 1
1626 1628 1
1626 1629 1
1626 1631 1
1626 1691 1
1626 1694 1
1626 1695 1
1627 1628 1
1627 1690 1
1627 1691 1
1627 1694 1
1627 2239 1
1627 2242 1
1627 2243 1
1627 2308 1
1628 1629 1
1628 1631 1
1628 2199 1
1628 2242 1
1628 2243 1
1628 2246 1
1629 1630 1
1629 1631 1
1629 1632 1
1630 1631 1
1630 1632 1
1630 1633 1
1630 1635 1
1630 1695 1
1630 1698 1
1630 1699 1
1631 1632 1
1631 1694 1
1631 1695 1
1631 1698 1
1631 2243 1
1631 2246 1
1631 2247 1
1631 2312 1
1632 1633 1
1632 1635 1
1632 2203 1
1632 2246 1
1632 2247 1
1632 2250 1
1633 1634 1
1633 1635 1
1633 1636 1
1634 1635 1
1634 1636 1
1634 1699 1
1634 1702 1
1635 1636 1
1635 1698 1
1635 1699 1
1635 1702 1
1635 2247 1
1635 2250 1
1635 2251 1
1635 2316 1
1636 2207 1
1636 2250 1
1636 2251 1
1637 1638 1
1637 1639 1
1637 1640 1
1638 1639 1
1638 1640 1
1638 1641 1
1638 1643 1
1638 1703 1
1638 1706 1
1638 1707 1
1639 1640 1
1639 1703 1
1639 1706 1
1639 2254 1
1639 2255 1
1639 2320 1
1640 1641 1
1640 1643 1
1640 2211 1
1640 2254 1
1640 2255 1
1640 2258 1
1641 1642 1
1641 1643 1
1641 1644 1
1642 1643 1
1642 1644 1
1642 1645 1
1642 1647 1
1642 1707 1
1642 1710 1
1642 1711 1
1643 1644 1
1643 1706 1
1643 1707 1
1643 1710 1
1643 2255 1
1643 2258 1
1643 2259 1
1643 2324 1
1644 1645 1
1644 1647 1
1644 2215 1
1644 2258 1
1644 2259 1
1644 2262 1
1645 1646 1
1645 1647 1
1645 1648 1
1646 1647 1
1646 1648 1
1646 1649 1
1646 1651 1
1646 1711 1
1646 1714 1
1646 1715 1
1647 1648 1
1647 1710 1
1647 1711 1
1647 1714 1
1647 2259 1
1647 2262 1
1647 2263 1
1647 2328 1
1648 1649 1
1648 1651 1
1648 2219 1
1648 2262 1
1648 2263 1
1648 2266 1
1649 1650 1
1649 1651 1
1649 1652 1
1650 1651 1
1650 1652 1
1650 1653 1
1650 1655 1
1650 1715 1
1650 1718 1
1650 1719 1
1651 1652 1
1651 1714 1
1651 1715 1
1651 1718 1
1651 2263 1
1651 2266 1
1651 2267 1
1651 2332 1
1652 1653 1
1652 1655 1
1652 2223 1
1652 2266 1
1652 2267 1
1652 2270 1
1653 1654 1
1653 1655 1
1653 1656 1
1654 1655 1
1654 1656 1
1654 1657 1
1654 1659 1
1654 1719 1
1654 1722 1
1654 1723 1
1655 1656 1
1655 1718 1
1655 1719 1
1655 1722 1
1655 2267 1
1655 2270 1
1655 2271 1
1655 2336 1
1656 1657 1
1656 1659 1
1656 2227 1
1656 2270 1
1656 2271 1
1656 2274 1
1657 1658 1
1657 1659 1
1657 1660 1
1658 1659 1
1658 1660 1
1658 1661 1
1658 1663 1
1658 1723 1
1658 1726 1
1658 1727 1
1659 1660 1
1659 1722 1
1659 1723 1
1659 1726 1
1659 2271 1
1659 2274 1
1659 2275 1
1659 2340 1
1660 1661 1
1660 1663 1
1660 2230 1
1660 2274 1
1660 2275 1
1660 2278 1
1661 1662 1
1661 1663 1
1661 1664 1
1662 1663 1
1662 1664 1
1662 1665 1
1662 1667 1
1662 1727 1
1662 1730 1
1662 1731 1
1663 1664 1
1663 1726 1
1663 1727 1
1663 1730 1
1663 2275 1
1663 2278 1
1663 2279 1
1663 2344 1
1664 1665 1
1664 1667 1
1664 2278 1
1664 2279 1
1664 2282 1
1665 1666 1
1665 1667 1
1666 1667 1
1666 1669 1
1666 1731 1
1666 1734 1
1666 1735 1
1667 1730 1
1667 1731 1
1667 1734 1
1667 2279 1
1667 2282 1
1667 2283 1
1667 2348 1
1668 1669 1
1668 1671 1
1668 1735 1
1668 1738 1
1668 1739 1
1669 1734 1
1669 1735 1
1669 1738 1
1669 2283 1
1669 2285 1
1669 2352 1
1670 1671 1
1670 1673 1
1670 1739 1
1670 1742 1
1670 1743 1
1671 1738 1
1671 1739 1
1671 1742 1
1671 2285 1
1671 2287 1
1671 2356 1
1672 1673 1
1672 1674 1
1672 1675 1
1672 1677 1
1672 1743 1
1672 1746 1
1672 1747 1
1673 1674 1
1673 1742 1
1673 1743 1
1673 1746 1
1673 2287 1
1673 2289 1
1673 2360 1
1674 1675 1
1674 1677 1
1674 2289 1
1674 2292 1
1675 1676 1
1675 1677 1
1675 1678 1
1676 1677 1
1676 1678 1
1676 1679 1
1676 1681 1
1676 1747 1
1676 1750 1
1676 1751 1
1677 1678 1
1677 1746 1
1677 1747 1
1677 1750 1
1677 2289 1
1677 2292 1
1677 2293 1
1677 2364 1
1678 1679 1
1678 1681 1
1678 2292 1
1678 2293 1
1678 2296 1
1679 1680 1
1679 1681 1
1679 1682 1
1680 1681 1
1680 1682 1
1680 1683 1
1680 1685 1
1680 1751 1
1680 1754 1
1680 1755 1
1681 1682 1
1681 1750 1
1681 1751 1
1681 1754 1
1681 2293 1
1681 2296 1
1681 2297 1
1681 2368 1
1682 1683 1
1682 1685 1
1682 2232 1
1682 2296 1
1682 2297 1
1682 2300 1
1683 1684 1
1683 1685 1
1683 1686 1
1684 1685 1
1684 1686 1
1684 1687 1
1684 1689 1
1684 1755 1
1684 1758 1
1684 1759 1
1685 1686 1
1685 1754 1
1685 1755 1
1685 1758 1
1685 2297 1
1685 2300 1
1685 2301 1
1685 2372 1
1686 1687 1
1686 1689 1
1686 2235 1
1686 2300 1
1686 2301 1
1686 2304 1
1687 1688 1
1687 1689 1
1687 1690 1
1688 1689 1
1688 1690 1
1688 1691 1
1688 1693 1
1688 1759 1
1688 1762 1
1688 1763 1
1689 1690 1
1689 1758 1
1689 1759 1
1689 1762 1
1689 2301 1
1689 2304 1
1689 2305 1
1689 2376 1
1690 1691 1
1690 1693 1
1690 2239 1
1690 2304 1
1690 2305 1
1690 2308 1
1691 1692 1
1691 1693 1
1691 1694 1
1692 1693 1
1692 1694 1
1692 1695 1
1692 1697 1
1692 1763 1
1692 1766 1
1692 1767 1
1693 1694 1
1693 1762 1
1693 1763 1
1693 1766 1
1693 2305 1
1693 2308 1
1693 2309 1
1693 2380 1
1694 1695 1
1694 1697 1
1694 2243 1
1694 2308 1
1694 2309 1
1694 2312 1
1695 1696 1
1695 1697 1
1695 1698 1
1696 1697 1
1696 1698 1
1696 1699 1
1696 1701 1
1696 1767 1
1696 1770 1
1696 1771 1
1697 1698 1
1697 1766 1
1697 1767 1
1697 1770 1
1697 2309 1
1697 2312 1
1697 2313 1
1697 2384 1
1698 1699 1
1698 1701 1
1698 2247 1
1698 2312 1
1698 2313 1
1698 2316 1
1699 1700 1
1699 1701 1
1699 1702 1
1700 1701 1
1700 1702 1
1700 1771 1
1700 1774 1
1701 1702 1
1701 1770 1
1701 1771 1
1701 1774 1
1701 2313 1
1701 2316 1
1701 2317 1
1701 2388 1
1702 2251 1
1702 2316 1
1702 2317 1
1703 1704 1
1703 1705 1
1703 1706 1
1704 1705 1
1704 1706 1
1704 1707 1
1704 1709 1
1705 1706 1
1705 2320 1
1705 2321 1
1706 1707 1
1706 1709 1
1706 2255 1
1706 2320 1
1706 2321 1
1706 2324 1
1707 1708 1
1707 1709 1
1707 1710 1
1708 1709 1
1708 1710 1
1708 1711 1
1708 1713 1
1709 1710 1
1709 2321 1
1709 2324 1
1709 2325 1
1710 1711 1
1710 1713 1
1710 2259 1
1710 2324 1
1710 2325 1
1710 2328 1
1711 1712 1
1711 1713 1
1711 1714 1
1712 1713 1
1712 1714 1
1712 1715 1
1712 1717 1
1713 1714 1
1713 2325 1
1713 2328 1
1713 2329 1
1714 1715 1
1714 1717 1
1714 2263 1
1714 2328 1
1714 2329 1
1714 2332 1
1715 1716 1
1715 1717 1
1715 1718 1
1716 1717 1
1716 1718 1
1716 1719 1
1716 1721 1
1717 1718 1
1717 2329 1
1717 2332 1
1717 2333 1
1718 1719 1
1718 1721 1
1718 2267 1
1718 2332 1
1718 2333 1
1718 2336 1
1719 1720 1
1719 1721 1
1719 1722 1
1720 1721 1
1720 1722 1
1720 1723 1
1720 1725 1
1721 1722 1
1721 2333 1
1721 2336 1
1721 2337 1
1722 1723 1
1722 1725 1
1722 2271 1
1722 2336 1
1722 2337 1
1722 2340 1
1723 1724 1
1723 1725 1
1723 1726 1
1724 1725 1
1724 1726 1
1724 1727 1
1724 1729 1
1725 1726 1
1725 2337 1
1725 2340 1
1725 2341 1
1726 1727 1
1726 1729 1
1726 2275 1
1726 2340 1
1726 2341 1
1726 2344 1
1727 1728 1
1727 1729 1
1727 1730 1
1728 1729 1
1728 1730 1
1728 1731 1
1728 1733 1
1729 1730 1
1729 2341 1
1729 2344 1
1729 2345 1
1730 1731 1
1730 1733 1
1730 2279 1
1730 2344 1
1730 2345 1
1730 2348 1
1731 1732 1
1731 1733 1
1731 1734 1
1732 1733 1
1732 1734 1
1732 1735 1
1732 1737 1
1733 1734 1
1733 2345 1
1733 2348 1
1733 2349 1
1734 1735 1
1734 1737 1
1734 2283 1
1734 2348 1
1734 2349 1
1734 2352 1
1735 1736 1
1735 1737 1
1735 1738 1
1736 1737 1
1736 1738 1
1736 1739 1
1736 1741 1
1737 1738 1
1737 2349 1
1737 2352 1
1737 2353 1
1738 1739 1
1738 1741 1
1738 2285 1
1738 2352 1
1738 2353 1
1738 2356 1
1739 1740 1
1739 1741 1
1739 1742 1
1740 1741 1
1740 1742 1
1740 1743 1
1740 1745 1
1741 1742 1
1741 2353 1
1741 2356 1
1741 2357 1
1742 1743 1
1742 1745 1
1742 2287 1
1742 2356 1
1742 2357 1
1742 2360 1
1743 1744 1
1743 1745 1
1743 1746 1
1744 1745 1
1744 1746 1
1744 1747 1
1744 1749 1
1745 1746 1
1745 2357 1
1745 2360 1
1745 2361 1
1746 1747 1
1746 1749 1
1746 2289 1
1746 2360 1
1746 2361 1
1746 2364 1
1747 1748 1
1747 1749 1
1747 1750 1
1748 1749 1
1748 1750 1
1748 1751 1
1748 1753 1
1749 1750 1
1749 2361 1
1749 2364 1
1749 2365 1
1750 1751 1
1750 1753 1
1750 2293 1
1750 2364 1
1750 2365 1
1750 2368 1
1751 1752 1
1751 1753 1
1751 1754 1
1752 1753 1
1752 1754 1
1752 1755 1
1752 1757 1
1753 1754 1
1753 2365 1
1753 2368 1
1753 2369 1
1754 1755 1
1754 1757 1
1754 2297 1
1754 2368 1
1754 2369 1
1754 2372 1
1755 1756 1
1755 1757 1
1755 1758 1
1756 1757 1
1756 1758 1
1756 1759 1
1756 1761 1
1757 1758 1
1757 2369 1
1757 2372 1
1757 2373 1
1758 1759 1
1758 1761 1
1758 2301 1
1758 2372 1
1758 2373 1
1758 2376 1
1759 1760 1
1759 1761 1
1759 1762 1
1760 1761 1
1760 1762 1
1760 1763 1
1760 1765 1
1761 1762 1
1761 2373 1
1761 2376 1
1761 2377 1
1762 1763 1
1762 1765 1
1762 2305 1
1762 2376 1
1762 2377 1
1762 2380 1
1763 1764 1
1763 1765 1
1763 1766 1
1764 1765 1
1764 1766 1
1764 1767 1
1764 1769 1
1765 1766 1
1765 2377 1
1765 2380 1
1765 2381 1
1766 1767 1
1766 1769 1
1766 2309 1
1766 2380 1
1766 2381 1
1766 2384 1
1767 1768 1
1767 1769 1
1767 1770 1
1768 1769 1
1768 1770 1
1768 1771 1
1768 1773 1
1769 1770 1
1769 2381 1
1769 2384 1
1769 2385 1
1770 1771 1
1770 1773 1
1770 2313 1
1770 2384 1
1770 2385 1
1770 2388 1
1771 1772 1
1771 1773 1
1771 1774 1
1772 1773 1
1772 1774 1
1773 1774 1
1773 2385 1
1773 2388 1
1773 2389 1
1774 2317 1
1774 2388 1
1774 2389 1
1775 1776 1
1775 1777 1
1775 1778 1
1776 1777 1
1776 1778 1
1776 1779 1
1776 1781 1
1776 1847 1
1776 1850 1
1776 1851 1
1777 1778 1
1777 1847 1
1777 1850 1
1777 2392 1
1777 2393 1
1777 2464 1
1778 1779 1
1778 1781 1
1778 2392 1
1778 2393 1
1778 2396 1
1779 1780 1
1779 1781 1
1779 1782 1
1780 1781 1
1780 1782 1
1780 1783 1
1780 1785 1
1780 1851 1
1780 1854 1
1780 1855 1
1781 1782 1
1781 1850 1
1781 1851 1
1781 1854 1
1781 2393 1
1781 2396 1
1781 2397 1
1781 2468 1
1782 1783 1
1782 1785 1
1782 2396 1
1782 2397 1
1782 2400 1
1783 1784 1
1783 1785 1
1783 1786 1
1784 1785 1
1784 1786 1
1784 1787 1
1784 1789 1
1784 1855 1
1784 1858 1
1784 1859 1
1785 1786 1
1785 1854 1
1785 1855 1
1785 1858 1
1785 2397 1
1785 2400 1
1785 2401 1
1785 2472 1
1786 1787 1
1786 1789 1
1786 2400 1
1786 2401 1
1786 2404 1
1787 1788 1
1787 1789 1
1787 1790 1
1788 1789 1
1788 1790 1
1788 1791 1
1788 1793 1
1788 1859 1
1788 1862 1
1788 1863 1
1789 1790 1
1789 1858 1
1789 1859 1
1789 1862 1
1789 2401 1
1789 2404 1
1789 2405 1
1789 2476 1
1790 1791 1
1790 1793 1
1790 2404 1
1790 2405 1
1790 2408 1
1791 1792 1
1791 1793 1
1791 1794 1
1792 1793 1
1792 1794 1
1792 1795 1
1792 1797 1
1792 1863 1
1792 1866 1
1792 1867 1
1793 1794 1
1793 1862 1
1793 1863 1
1793 1866 1
1793 2405 1
1793 2408 1
1793 2409 1
1793 2480 1
1794 1795 1
1794 1797 1
1794 2408 1
1794 2409 1
1794 2412 1
1795 1796 1
1795 1797 1
1795 1798 1
1796 1797 1
1796 1798 1
1796 1799 1
1796 1801 1
1796 1867 1
1796 1870 1
1796 1871 1
1797 1798 1
1797 1866 1
1797 1867 1
1797 1870 1
1797 2409 1
1797 2412 1
1797 2413 1
1797 2484 1
1798 1799 1
1798 1801 1
1798 2412 1
1798 2413 1
1798 2416 1
1799 1800 1
1799 1801 1
1799 1802 1
1800 1801 1
1800 1802 1
1800 1803 1
1800 1805 1
1800 1871 1
1800 1874 1
1800 1875 1
1801 1802 1
1801 1870 1
1801 1871 1
1801 1874 1
1801 2413 1
1801 2416 1
1801 2417 1
1801 2488 1
1802 1803 1
1802 1805 1
1802 2416 1
1802 2417 1
1802 2420 1
1803 1804 1
1803 1805 1
1803 1806 1
1804 1805 1
1804 1806 1
1804 1807 1
1804 1809 1
1804 1875 1
1804 1878 1
1804 1879 1
1805 1806 1
1805 1874 1
1805 1875 1
1805 1878 1
1805 2417 1
1805 2420 1
1805 2421 1
1805 2492 1
1806 1807 1
1806 1809 1
1806 2420 1
1806 2421 1
1806 2424 1
1807 1808 1
1807 1809 1
1807 1810 1
1808 1809 1
1808 1810 1
1808 1811 1
1808 1813 1
1808 1879 1
1808 1881 1
1808 1882 1
1809 1810 1
1809 1878 1
1809 1879 1
1809 1881 1
1809 2421 1
1809 2424 1
1809 2425 1
1809 2496 1
1810 1811 1
1810 1813 1
1810 2424 1
1810 2425 1
1810 2428 1
1811 1812 1
1811 1813 1
1811 1814 1
1812 1813 1
1812 1814 1
1812 1815 1
1812 1817 1
1812 1882 1
1812 1883 1
1812 1884 1
1813 1814 1
1813 1881 1
1813 1882 1
1813 1883 1
1813 2425 1
1813 2428 1
1813 2429 1
1813 2499 1
1814 1815 1
1814 1817 1
1814 2428 1
1814 2429 1
1814 2432 1
1815 1816 1
1815 1817 1
1815 1818 1
1816 1817 1
1816 1818 1
1816 1819 1
1816 1821 1
1816 1884 1
1816 1887 1
1816 1888 1
1817 1818 1
1817 1883 1
1817 1884 1
1817 1887 1
1817 2429 1
1817 2432 1
1817 2433 1
1817 2501 1
1818 1819 1
1818 1821 1
1818 2432 1
1818 2433 1
1818 2436 1
1819 1820 1
1819 1821 1
1819 1822 1
1820 1821 1
1820 1822 1
1820 1823 1
1820 1825 1
1820 1888 1
1820 1891 1
1820 1892 1
1821 1822 1
1821 1887 1
1821 1888 1
1821 1891 1
1821 2433 1
1821 2436 1
1821 2437 1
1821 2505 1
1822 1823 1
1822 1825 1
1822 2436 1
1822 2437 1
1822 2440 1
1823 1824 1
1823 1825 1
1823 1826 1
1824 1825 1
1824 1826 1
1824 1827 1
1824 1829 1
1824 1892 1
1824 1895 1
1824 1896 1
1825 1826 1
1825 1891 1
1825 1892 1
1825 1895 1
1825 2437 1
1825 2440 1
1825 2441 1
1825 2509 1
1826 1827 1
1826 1829 1
1826 2440 1
1826 2441 1
1826 2444 1
1827 1828 1
1827 1829 1
1827 1830 1
1828 1829 1
1828 1830 1
1828 1831 1
1828 1833 1
1828 1896 1
1828 1899 1
1828 1900 1
1829 1830 1
1829 1895 1
1829 1896 1
1829 1899 1
1829 2441 1
1829 2444 1
1829 2445 1
1829 2513 1
1830 1831 1
1830 1833 1
1830 2444 1
1830 2445 1
1830 2448 1
1831 1832 1
1831 1833 1
1831 1834 1
1832 1833 1
1832 1834 1
1832 1835 1
1832 1837 1
1832 1900 1
1832 1903 1
1832 1904 1
1833 1834 1
1833 1899 1
1833 1900 1
1833 1903 1
1833 2445 1
1833 2448 1
1833 2449 1
1833 2517 1
1834 1835 1
1834 1837 1
1834 2448 1
1834 2449 1
1834 2452 1
1835 1836 1
1835 1837 1
1835 1838 1
1836 1837 1
1836 1838 1
1836 1839 1
1836 1841 1
1836 1904 1
1836 1907 1
1836 1908 1
1837 1838 1
1837 1903 1
1837 1904 1
1837 1907 1
1837 2449 1
1837 2452 1
1837 2453 1
1837 2521 1
1838 1839 1
1838 1841 1
1838 2452 1
1838 2453 1
1838 2456 1
1839 1840 1
1839 1841 1
1839 1842 1
1840 1841 1
1840 1842 1
1840 1843 1
1840 1845 1
1840 1908 1
1840 1911 1
1840 1912 1
1841 1842 1
1841 1907 1
1841 1908 1
1841 1911 1
1841 2453 1
1841 2456 1
1841 2457 1
1841 2525 1
1842 1843 1
1842 1845 1
1842 2456 1
1842 2457 1
1842 2460 1
1843 1844 1
1843 1845 1
1843 1846 1
1844 1845 1
1844 1846 1
1844 1912 1
1844 1915 1
1845 1846 1
1845 1911 1
1845 1912 1
1845 1915 1
1845 2457 1
1845 2460 1
1845 2461 1
1845 2529 1
1846 2460 1
1846 2461 1
1847 1848 1
1847 1849 1
1847 1850 1
1848 1849 1
1848 1850 1
1848 1851 1
1848 1853 1
1848 1916 1
1848 1919 1
1848 1920 1
1849 1850 1
1849 1916 1
1849 1919 1
1849 2464 1
1849 2465 1
1849 2533 1
1850 1851 1
1850 1853 1
1850 2393 1
1850 2464 1
1850 2465 1
1850 2468 1
1851 1852 1
1851 1853 1
1851 1854 1
1852 1853 1
1852 1854 1
1852 1855 1
1852 1857 1
1852 1920 1
1852 1923 1
1852 1924 1
1853 1854 1
1853 1919 1
1853 1920 1
1853 1923 1
1853 2465 1
1853 2468 1
1853 2469 1
1853 2537 1
1854 1855 1
1854 1857 1
1854 2397 1
1854 2468 1
1854 2469 1
1854 2472 1
1855 1856 1
1855 1857 1
1855 1858 1
1856 1857 1
1856 1858 1
1856 1859 1
1856 1861 1
1856 1924 1
1856 1927 1
1856 1928 1
1857 1858 1
1857 1923 1
1857 1924 1
1857 1927 1
1857 2469 1
1857 2472 1
1857 2473 1
1857 2541 1
1858 1859 1
1858 1861 1
1858 2401 1
1858 2472 1
1858 2473 1
1858 2476 1
1859 1860 1
1859 1861 1
1859 1862 1
1860 1861 1
1860 1862 1
1860 1863 1
1860 1865 1
1860 1928 1
1860 1931 1
1860 1932 1
1861 1862 1
1861 1927 1
1861 1928 1
1861 1931 1
1861 2473 1
1861 2476 1
1861 2477 1
1861 2545 1
1862 1863 1
1862 1865 1
1862 2405 1
1862 2476 1
1862 2477 1
1862 2480 1
1863 1864 1
1863 1865 1
1863 1866 1
1864 1865 1
1864 1866 1
1864 1867 1
1864 1869 1
1864 1932 1
1864 1935 1
1864 1936 1
1865 1866 1
1865 1931 1
1865 1932 1
1865 1935 1
1865 2477 1
1865 2480 1
1865 2481 1
1865 2549 1
1866 1867 1
1866 1869 1
1866 2409 1
1866 2480 1
1866 2481 1
1866 2484 1
1867 1868 1
1867 1869 1
1867 1870 1
1868 1869 1
1868 1870 1
1868 1871 1
1868 1873 1
1868 1936 1
1868 1938 1
1868 1939 1
1869 1870 1
1869 1935 1
1869 1936 1
1869 1938 1
1869 2481 1
1869 2484 1
1869 2485 1
1869 2553 1
1870 1871 1
1870 1873 1
1870 2413 1
1870 2484 1
1870 2485 1
1870 2488 1
1871 1872 1
1871 1873 1
1871 1874 1
1872 1873 1
1872 1874 1
1872 1875 1
1872 1877 1
1872 1939 1
1873 1874 1
1873 1938 1
1873 1939 1
1873 2485 1
1873 2488 1
1873 2489 1
1873 2556 1
1874 1875 1
1874 1877 1
1874 2417 1
1874 2488 1
1874 2489 1
1874 2492 1
1875 1876 1
1875 1877 1
1875 1878 1
1876 1877 1
1876 1878 1
1876 1879 1
1876 1880 1
1877 1878 1
1877 2489 1
1877 2492 1
1877 2493 1
1878 1879 1
1878 1880 1
1878 2421 1
1878 2492 1
1878 2493 1
1878 2496 1
1879 1880 1
1879 1881 1
1880 1881 1
1880 2493 1
1880 2496 1
1881 1882 1
1881 2425 1
1881 2496 1
1881 2499 1
1882 1883 1
1883 1884 1
1883 1886 1
1883 2429 1
1883 2499 1
1883 2501 1
1884 1885 1
1884 1886 1
1884 1887 1
1885 1886 1
1885 1887 1
1885 1888 1
1885 1890 1
1886 1887 1
1886 2501 1
1886 2502 1
1887 1888 1
1887 1890 1
1887 2433 1
1887 2501 1
1887 2502 1
1887 2505 1
1888 1889 1
1888 1890 1
1888 1891 1
1889 1890 1
1889 1891 1
1889 1892 1
1889 1894 1
1889 1940 1
1890 1891 1
1890 2502 1
1890 2505 1
1890 2506 1
1891 1892 1
1891 1894 1
1891 2437 1
1891 2505 1
1891 2506 1
1891 2509 1
1892 1893 1
1892 1894 1
1892 1895 1
1893 1894 1
1893 1895 1
1893 1896 1
1893 1898 1
1893 1940 1
1893 1941 1
1893 1942 1
1894 1895 1
1894 1940 1
1894 1941 1
1894 2506 1
1894 2509 1
1894 2510 1
1894 2557 1
1895 1896 1
1895 1898 1
1895 2441 1
1895 2509 1
1895 2510 1
1895 2513 1
1896 1897 1
1896 1898 1
1896 1899 1
1897 1898 1
1897 1899 1
1897 1900 1
1897 1902 1
1897 1942 1
1897 1945 1
1897 1946 1
1898 1899 1
1898 1941 1
1898 1942 1
1898 1945 1
1898 2510 1
1898 2513 1
1898 2514 1
1898 2559 1
1899 1900 1
1899 1902 1
1899 2445 1
1899 2513 1
1899 2514 1
1899 2517 1
1900 1901 1
1900 1902 1
1900 1903 1
1901 1902 1
1901 1903 1
1901 1904 1
1901 1906 1
1901 1946 1
1901 1949 1
1901 1950 1
1902 1903 1
1902 1945 1
1902 1946 1
1902 1949 1
1902 2514 1
1902 2517 1
1902 2518 1
1902 2563 1
1903 1904 1
1903 1906 1
1903 2449 1
1903 2517 1
1903 2518 1
1903 2521 1
1904 1905 1
1904 1906 1
1904 1907 1
1905 1906 1
1905 1907 1
1905 1908 1
1905 1910 1
1905 1950 1
1905 1953 1
1905 1954 1
1906 1907 1
1906 1949 1
1906 1950 1
1906 1953 1
1906 2518 1
1906 2521 1
1906 2522 1
1906 2567 1
1907 1908 1
1907 1910 1
1907 2453 1
1907 2521 1
1907 2522 1
1907 2525 1
1908 1909 1
1908 1910 1
1908 1911 1
1909 1910 1
1909 1911 1
1909 1912 1
1909 1914 1
1909 1954 1
1909 1957 1
1909 1958 1
1910 1911 1
1910 1953 1
1910 1954 1
1910 1957 1
1910 2522 1
1910 2525 1
1910 2526 1
1910 2571 1
1911 1912 1
1911 1914 1
1911 2457 1
1911 2525 1
1911 2526 1
1911 2529 1
1912 1913 1
1912 1914 1
1912 1915 1
1913 1914 1
1913 1915 1
1913 1958 1
1913 1961 1
1914 1915 1
1914 1957 1
1914 1958 1
1914 1961 1
1914 2526 1
1914 2529 1
1914 2530 1
1914 2575 1
1915 2461 1
1915 2529 1
1915 2530 1
1916 1917 1
1916 1918 1
1916 1919 1
1917 1918 1
1917 1919 1
1917 1920 1
1917 1922 1
1917 1962 1
1917 1965 1
1917 1966 1
1918 1919 1
1918 1962 1
1918 1965 1
1918 2533 1
1918 2534 1
1918 2579 1
1919 1920 1
1919 1922 1
1919 2465 1
1919 2533 1
1919 2534 1
1919 2537 1
1920 1921 1
1920 1922 1
1920 1923 1
1921 1922 1
1921 1923 1
1921 1924 1
1921 1926 1
1921 1966 1
1921 1969 1
1921 1970 1
1922 1923 1
1922 1965 1
1922 1966 1
1922 1969 1
1922 2534 1
1922 2537 1
1922 2538 1
1922 2583 1
1923 1924 1
1923 1926 1
1923 2469 1
1923 2537 1
1923 2538 1
1923 2541 1
1924 1925 1
1924 1926 1
1924 1927 1
1925 1926 1
1925 1927 1
1925 1928 1
1925 1930 1
1925 1970 1
1925 1973 1
1925 1974 1
1926 1927 1
1926 1969 1
1926 1970 1
1926 1973 1
1926 2538 1
1926 2541 1
1926 2542 1
1926 2587 1
1927 1928 1
1927 1930 1
1927 2473 1
1927 2541 1
1927 2542 1
1927 2545 1
1928 1929 1
1928 1930 1
1928 1931 1
1929 1930 1
1929 1931 1
1929 1932 1
1929 1934 1
1929 1974 1
1929 1977 1
1929 1978 1
1930 1931 1
1930 1973 1
1930 1974 1
1930 1977 1
1930 2542 1
1930 2545 1
1930 2546 1
1930 2591 1
1931 1932 1
1931 1934 1
1931 2477 1
1931 2545 1
1931 2546 1
1931 2549 1
1932 1933 1
1932 1934 1
1932 1935 1
1933 1934 1
1933 1935 1
1933 1936 1
1933 1937 1
1933 1978 1
1934 1935 1
1934 1977 1
1934 1978 1
1934 2546 1
1934 2549 1
1934 2550 1
1934 2595 1
1935 1936 1
1935 1937 1
1935 2481 1
1935 2549 1
1935 2550 1
1935 2553 1
1936 1937 1
1936 1938 1
1937 1938 1
1937 2550 1
1937 2553 1
1938 1939 1
1938 2485 1
1938 2553 1
1938 2556 1
1940 1941 1
1941 1942 1
1941 1944 1
1941 2510 1
1941 2557 1
1941 2559 1
1942 1943 1
1942 1944 1
1942 1945 1
1943 1944 1
1943 1945 1
1943 1946 1
1943 1948 1
1943 1979 1
1943 1980 1
1944 1945 1
1944 1979 1
1944 2559 1
1944 2560 1
1945 1946 1
1945 1948 1
1945 2514 1
1945 2559 1
1945 2560 1
1945 2563 1
1946 1947 1
1946 1948 1
1946 1949 1
1947 1948 1
1947 1949 1
1947 1950 1
1947 1952 1
1947 1980 1
1947 1983 1
1947 1984 1
1948 1949 1
1948 1979 1
1948 1980 1
1948 1983 1
1948 2560 1
1948 2563 1
1948 2564 1
1948 2597 1
1949 1950 1
1949 1952 1
1949 2518 1
1949 2563 1
1949 2564 1
1949 2567 1
1950 1951 1
1950 1952 1
1950 1953 1
1951 1952 1
1951 1953 1
1951 1954 1
1951 1956 1
1951 1984 1
1951 1987 1
1951 1988 1
1952 1953 1
1952 1983 1
1952 1984 1
1952 1987 1
1952 2564 1
1952 2567 1
1952 2568 1
1952 2601 1
1953 1954 1
1953 1956 1
1953 2522 1
1953 2567 1
1953 2568 1
1953 2571 1
1954 1955 1
1954 1956 1
1954 1957 1
1955 1956 1
1955 1957 1
1955 1958 1
1955 1960 1
1955 1988 1
1955 1991 1
1955 1992 1
1956 1957 1
1956 1987 1
1956 1988 1
1956 1991 1
1956 2568 1
1956 2571 1
1956 2572 1
1956 2605 1
1957 1958 1
1957 1960 1
1957 2526 1
1957 2571 1
1957 2572 1
1957 2575 1
1958 1959 1
1958 1960 1
1958 1961 1
1959 1960 1
1959 1961 1
1959 1992 1
1959 1995 1
1960 1961 1
1960 1991 1
1960 1992 1
1960 1995 1
1960 2572 1
1960 2575 1
1960 2576 1
1960 2609 1
1961 2530 1
1961 2575 1
1961 2576 1
1962 1963 1
1962 1964 1
1962 1965 1
1963 1964 1
1963 1965 1
1963 1966 1
1963 1968 1
1963 1996 1
1963 1999 1
1963 2000 1
1964 1965 1
1964 1996 1
1964 1999 1
1964 2579 1
1964 2580 1
1964 2613 1
1965 1966 1
1965 1968 1
1965 2534 1
1965 2579 1
1965 2580 1
1965 2583 1
1966 1967 1
1966 1968 1
1966 1969 1
1967 1968 1
1967 1969 1
1967 1970 1
1967 1972 1
1967 2000 1
1967 2003 1
1967 2004 1
1968 1969 1
1968 1999 1
1968 2000 1
1968 2003 1
1968 2580 1
1968 2583 1
1968 2584 1
1968 2617 1
1969 1970 1
1969 1972 1
1969 2538 1
1969 2583 1
1969 2584 1
1969 2587 1
1970 1971 1
1970 1972 1
1970 1973 1
1971 1972 1
1971 1973 1
1971 1974 1
1971 1976 1
1971 2004 1
1971 2007 1
1971 2008 1
1972 1973 1
1972 2003 1
1972 2004 1
1972 2007 1
1972 2584 1
1972 2587 1
1972 2588 1
1972 2621 1
1973 1974 1
1973 1976 1
1973 2542 1
1973 2587 1
1973 2588 1
1973 2591 1
1974 1975 1
1974 1976 1
1974 1977 1
1975 1976 1
1975 1977 1
1975 1978 1
1975 2008 1
1976 1977 1
1976 2007 1
1976 2008 1
1976 2588 1
1976 2591 1
1976 2592 1
1976 2625 1
1977 1978 1
1977 2546 1
1977 2591 1
1977 2592 1
1977 2595 1
1979 1980 1
1979 1982 1
1979 2560 1
1979 2597 1
1980 1981 1
1980 1982 1
1980 1983 1
1981 1982 1
1981 1983 1
1981 1984 1
1981 1986 1
1981 2009 1
1981 2010 1
1982 1983 1
1982 2009 1
1982 2597 1
1982 2598 1
1983 1984 1
1983 1986 1
1983 2564 1
1983 2597 1
1983 2598 1
1983 2601 1
1984 1985 1
1984 1986 1
1984 1987 1
1985 1986 1
1985 1987 1
1985 1988 1
1985 1990 1
1985 2010 1
1985 2013 1
1985 2014 1
1986 1987 1
1986 2009 1
1986 2010 1
1986 2013 1
1986 2598 1
1986 2601 1
1986 2602 1
1986 2627 1
1987 1988 1
1987 1990 1
1987 2568 1
1987 2601 1
1987 2602 1
1987 2605 1
1988 1989 1
1988 1990 1
1988 1991 1
1989 1990 1
1989 1991 1
1989 1992 1
1989 1994 1
1989 2014 1
1989 2017 1
1989 2018 1
1990 1991 1
1990 2013 1
1990 2014 1
1990 2017 1
1990 2602 1
1990 2605 1
1990 2606 1
1990 2631 1
1991 1992 1
1991 1994 1
1991 2572 1
1991 2605 1
1991 2606 1
1991 2609 1
1992 1993 1
1992 1994 1
1992 1995 1
1993 1994 1
1993 1995 1
1993 2018 1
1993 2021 1
1994 1995 1
1994 2017 1
1994 2018 1
1994 2021 1
1994 2606 1
1994 2609 1
1994 2610 1
1994 2635 1
1995 2576 1
1995 2609 1
1995 2610 1
1996 1997 1
1996 1998 1
1996 1999 1
1997 1998 1
1997 1999 1
1997 2000 1
1997 2002 1
1997 2022 1
1997 2025 1
1997 2026 1
1998 1999 1
1998 2022 1
1998 2025 1
1998 2613 1
1998 2614 1
1998 2639 1
1999 2000 1
1999 2002 1
1999 2580 1
1999 2613 1
1999 2614 1
1999 2617 1
2000 2001 1
2000 2002 1
2000 2003 1
2001 2002 1
2001 2003 1
2001 2004 1
2001 2006 1
2001 2026 1
2001 2029 1
2001 2030 1
2002 2003 1
2002 2025 1
2002 2026 1
2002 2029 1
2002 2614 1
2002 2617 1
2002 2618 1
2002 2643 1
2003 2004 1
2003 2006 1
2003 2584 1
2003 2617 1
2003 2618 1
2003 2621 1
2004 2005 1
2004 2006 1
2004 2007 1
2005 2006 1
2005 2007 1
2005 2008 1
2005 2030 1
2005 2032 1
2006 2007 1
2006 2029 1
2006 2030 1
2006 2032 1
2006 2618 1
2006 2621 1
2006 2622 1
2006 2647 1
2007 2008 1
2007 2588 1
2007 2621 1
2007 2622 1
2007 2625 1
2009 2010 1
2009 2012 1
2009 2598 1
2009 2627 1
2010 2011 1
2010 2012 1
2010 2013 1
2011 2012 1
2011 2013 1
2011 2014 1
2011 2016 1
2011 2034 1
2011 2035 1
2012 2013 1
2012 2034 1
2012 2627 1
2012 2628 1
2013 2014 1
2013 2016 1
2013 2602 1
2013 2627 1
2013 2628 1
2013 2631 1
2014 2015 1
2014 2016 1
2014 2017 1
2015 2016 1
2015 2017 1
2015 2018 1
2015 2020 1
2015 2035 1
2015 2038 1
2015 2039 1
2016 2017 1
2016 2034 1
2016 2035 1
2016 2038 1
2016 2628 1
2016 2631 1
2016 2632 1
2016 2652 1
2017 2018 1
2017 2020 1
2017 2606 1
2017 2631 1
2017 2632 1
2017 2635 1
2018 2019 1
2018 2020 1
2018 2021 1
2019 2020 1
2019 2021 1
2019 2039 1
2019 2042 1
2020 2021 1
2020 2038 1
2020 2039 1
2020 2042 1
2020 2632 1
2020 2635 1
2020 2636 1
2020 2656 1
2021 2610 1
2021 2635 1
2021 2636 1
2022 2023 1
2022 2024 1
2022 2025 1
2023 2024 1
2023 2025 1
2023 2026 1
2023 2028 1
2023 2043 1
2023 2046 1
2023 2047 1
2024 2025 1
2024 2043 1
2024 2046 1
2024 2639 1
2024 2640 1
2024 2660 1
2025 2026 1
2025 2028 1
2025 2614 1
2025 2639 1
2025 2640 1
2025 2643 1
2026 2027 1
2026 2028 1
2026 2029 1
2027 2028 1
2027 2029 1
2027 2030 1
2027 2031 1
2027 2047 1
2027 2050 1
2027 2051 1
2028 2029 1
2028 2046 1
2028 2047 1
2028 2050 1
2028 2640 1
2028 2643 1
2028 2644 1
2028 2664 1
2029 2030 1
2029 2031 1
2029 2618 1
2029 2643 1
2029 2644 1
2029 2647 1
2030 2031 1
2030 2032 1
2031 2032 1
2031 2050 1
2031 2051 1
2031 2644 1
2031 2647 1
2031 2668 1
2032 2622 1
2032 2647 1
2033 2034 1
2033 2035 1
2033 2037 1
2033 2052 1
2034 2035 1
2034 2037 1
2034 2628 1
2034 2650 1
2034 2652 1
2035 2036 1
2035 2037 1
2035 2038 1
2036 2037 1
2036 2038 1
2036 2039 1
2036 2041 1
2036 2052 1
2036 2055 1
2036 2056 1
2037 2038 1
2037 2052 1
2037 2055 1
2037 2650 1
2037 2652 1
2037 2653 1
2037 2669 1
2038 2039 1
2038 2041 1
2038 2632 1
2038 2652 1
2038 2653 1
2038 2656 1
2039 2040 1
2039 2041 1
2039 2042 1
2040 2041 1
2040 2042 1
2040 2056 1
2040 2059 1
2041 2042 1
2041 2055 1
2041 2056 1
2041 2059 1
2041 2653 1
2041 2656 1
2041 2657 1
2041 2673 1
2042 2636 1
2042 2656 1
2042 2657 1
2043 2044 1
2043 2045 1
2043 2046 1
2044 2045 1
2044 2046 1
2044 2047 1
2044 2049 1
2044 2060 1
2044 2063 1
2044 2064 1
2045 2046 1
2045 2060 1
2045 2063 1
2045 2660 1
2045 2661 1
2045 2677 1
2046 2047 1
2046 2049 1
2046 2640 1
2046 2660 1
2046 2661 1
2046 2664 1
2047 2048 1
2047 2049 1
2047 2050 1
2048 2049 1
2048 2050 1
2048 2051 1
2048 2064 1
2048 2067 1
2049 2050 1
2049 2063 1
2049 2064 1
2049 2067 1
2049 2661 1
2049 2664 1
2049 2665 1
2049 2681 1
2050 2051 1
2050 2644 1
2050 2664 1
2050 2665 1
2050 2668 1
2052 2053 1
2052 2054 1
2052 2055 1
2053 2054 1
2053 2055 1
2053 2056 1
2053 2058 1
2053 2068 1
2053 2070 1
2053 2071 1
2054 2055 1
2054 2068 1
2054 2070 1
2054 2669 1
2054 2670 1
2054 2685 1
2055 2056 1
2055 2058 1
2055 2653 1
2055 2669 1
2055 2670 1
2055 2673 1
2056 2057 1
2056 2058 1
2056 2059 1
2057 2058 1
2057 2059 1
2057 2071 1
2057 2074 1
2058 2059 1
2058 2070 1
2058 2071 1
2058 2074 1
2058 2670 1
2058 2673 1
2058 2674 1
2058 2688 1
2059 2657 1
2059 2673 1
2059 2674 1
2060 2061 1
2060 2062 1
2060 2063 1
2061 2062 1
2061 2063 1
2061 2064 1
2061 2066 1
2061 2075 1
2061 2078 1
2061 2079 1
2062 2063 1
2062 2075 1
2062 2078 1
2062 2677 1
2062 2678 1
2062 2692 1
2063 2064 1
2063 2066 1
2063 2661 1
2063 2677 1
2063 2678 1
2063 2681 1
2064 2065 1
2064 2066 1
2064 2067 1
2065 2066 1
2065 2067 1
2065 2079 1
2065 2081 1
2066 2067 1
2066 2078 1
2066 2079 1
2066 2081 1
2066 2678 1
2066 2681 1
2066 2682 1
2066 2696 1
2067 2665 1
2067 2681 1
2067 2682 1
2068 2069 1
2068 2070 1
2069 2070 1
2069 2071 1
2069 2073 1
2069 2083 1
2069 2084 1
2070 2071 1
2070 2073 1
2070 2670 1
2070 2685 1
2070 2686 1
2070 2688 1
2071 2072 1
2071 2073 1
2071 2074 1
2072 2073 1
2072 2074 1
2072 2084 1
2072 2087 1
2073 2074 1
2073 2083 1
2073 2084 1
2073 2087 1
2073 2686 1
2073 2688 1
2073 2689 1
2073 2701 1
2074 2674 1
2074 2688 1
2074 2689 1
2075 2076 1
2075 2077 1
2075 2078 1
2076 2077 1
2076 2078 1
2076 2079 1
2076 2080 1
2076 2088 1
2076 2091 1
2076 2092 1
2077 2078 1
2077 2088 1
2077 2091 1
2077 2692 1
2077 2693 1
2077 2705 1
2078 2079 1
2078 2080 1
2078 2678 1
2078 2692 1
2078 2693 1
2078 2696 1
2079 2080 1
2079 2081 1
2080 2081 1
2080 2091 1
2080 2092 1
2080 2693 1
2080 2696 1
2080 2709 1
2081 2682 1
2081 2696 1
2082 2083 1
2082 2084 1
2082 2086 1
2082 2095 1
2082 2096 1
2083 2084 1
2083 2086 1
2083 2686 1
2083 2699 1
2083 2701 1
2084 2085 1
2084 2086 1
2084 2087 1
2085 2086 1
2085 2087 1
2085 2096 1
2085 2099 1
2086 2087 1
2086 2095 1
2086 2096 1
2086 2099 1
2086 2699 1
2086 2701 1
2086 2702 1
2086 2713 1
2087 2689 1
2087 2701 1
2087 2702 1
2088 2089 1
2088 2090 1
2088 2091 1
2089 2090 1
2089 2091 1
2089 2092 1
2089 2093 1
2089 2100 1
2089 2103 1
2089 2104 1
2090 2091 1
2090 2100 1
2090 2103 1
2090 2705 1
2090 2706 1
2090 2717 1
2091 2092 1
2091 2093 1
2091 2693 1
2091 2705 1
2091 2706 1
2091 2709 1
2092 2093 1
2093 2103 1
2093 2104 1
2093 2107 1
2093 2706 1
2093 2709 1
2093 2721 1
2094 2095 1
2094 2096 1
2094 2098 1
2094 2110 1
2094 2111 1
2095 2096 1
2095 2098 1
2095 2699 1
2095 2711 1
2095 2713 1
2096 2097 1
2096 2098 1
2096 2099 1
2097 2098 1
2097 2099 1
2097 2111 1
2097 2114 1
2098 2099 1
2098 2110 1
2098 2111 1
2098 2114 1
2098 2711 1
2098 2713 1
2098 2714 1
2098 2728 1
2099 2702 1
2099 2713 1
2099 2714 1
2100 2101 1
2100 2102 1
2100 2103 1
2101 2102 1
2101 2103 1
2101 2104 1
2101 2106 1
2101 2115 1
2101 2118 1
2101 2119 1
2102 2103 1
2102 2115 1
2102 2118 1
2102 2717 1
2102 2718 1
2102 2732 1
2103 2104 1
2103 2106 1
2103 2706 1
2103 2717 1
2103 2718 1
2103 2721 1
2104 2105 1
2104 2106 1
2104 2107 1
2105 2106 1
2105 2107 1
2105 2119 1
2105 2122 1
2106 2107 1
2106 2118 1
2106 2119 1
2106 2122 1
2106 2718 1
2106 2721 1
2106 2722 1
2106 2736 1
2107 2721 1
2107 2722 1
2108 2109 1
2108 2110 1
2108 2111 1
2108 2113 1
2108 2123 1
2108 2126 1
2108 2127 1
2109 2110 1
2109 2123 1
2109 2126 1
2109 2725 1
2109 2740 1
2110 2111 1
2110 2113 1
2110 2711 1
2110 2725 1
2110 2728 1
2111 2112 1
2111 2113 1
2111 2114 1
2112 2113 1
2112 2114 1
2112 2127 1
2112 2130 1
2113 2114 1
2113 2126 1
2113 2127 1
2113 2130 1
2113 2725 1
2113 2728 1
2113 2729 1
2113 2744 1
2114 2714 1
2114 2728 1
2114 2729 1
2115 2116 1
2115 2117 1
2115 2118 1
2116 2117 1
2116 2118 1
2116 2119 1
2116 2121 1
2116 2131 1
2116 2134 1
2116 2135 1
2117 2118 1
2117 2131 1
2117 2134 1
2117 2732 1
2117 2733 1
2117 2748 1
2118 2119 1
2118 2121 1
2118 2718 1
2118 2732 1
2118 2733 1
2118 2736 1
2119 2120 1
2119 2121 1
2119 2122 1
2120 2121 1
2120 2122 1
2120 2135 1
2120 2138 1
2120 2139 1
2121 2122 1
2121 2134 1
2121 2135 1
2121 2138 1
2121 2733 1
2121 2736 1
2121 2737 1
2121 2752 1
2122 2722 1
2122 2736 1
2122 2737 1
2123 2124 1
2123 2125 1
2123 2126 1
2124 2125 1
2124 2126 1
2124 2127 1
2124 2129 1
2124 2143 1
2124 2146 1
2124 2147 1
2125 2126 1
2125 2142 1
2125 2143 1
2125 2146 1
2125 2740 1
2125 2741 1
2125 2760 1
2126 2127 1
2126 2129 1
2126 2725 1
2126 2740 1
2126 2741 1
2126 2744 1
2127 2128 1
2127 2129 1
2127 2130 1
2128 2129 1
2128 2130 1
2128 2147 1
2128 2150 1
2129 2130 1
2129 2146 1
2129 2147 1
2129 2150 1
2129 2741 1
2129 2744 1
2129 2745 1
2129 2764 1
2130 2729 1
2130 2744 1
2130 2745 1
2131 2132 1
2131 2133 1
2131 2134 1
2132 2133 1
2132 2134 1
2132 2135 1
2132 2137 1
2132 2151 1
2132 2154 1
2132 2155 1
2133 2134 1
2133 2151 1
2133 2154 1
2133 2748 1
2133 2749 1
2133 2768 1
2134 2135 1
2134 2137 1
2134 2733 1
2134 2748 1
2134 2749 1
2134 2752 1
2135 2136 1
2135 2137 1
2135 2138 1
2136 2137 1
2136 2138 1
2136 2139 1
2136 2140 1
2136 2155 1
2136 2158 1
2136 2159 1
2137 2138 1
2137 2154 1
2137 2155 1
2137 2158 1
2137 2749 1
2137 2752 1
2137 2753 1
2137 2772 1
2138 2139 1
2138 2140 1
2138 2737 1
2138 2752 1
2138 2753 1
2138 2756 1
2139 2140 1
2140 2158 1
2140 2159 1
2140 2162 1
2140 2753 1
2140 2756 1
2140 2776 1
2141 2142 1
2141 2143 1
2141 2145 1
2141 2165 1
2141 2168 1
2141 2169 1
2142 2143 1
2142 2145 1
2142 2758 1
2142 2760 1
2143 2144 1
2143 2145 1
2143 2146 1
2144 2145 1
2144 2146 1
2144 2147 1
2144 2149 1
2144 2169 1
2144 2172 1
2144 2173 1
2145 2146 1
2145 2168 1
2145 2169 1
2145 2172 1
2145 2758 1
2145 2760 1
2145 2761 1
2145 2786 1
2146 2147 1
2146 2149 1
2146 2741 1
2146 2760 1
2146 2761 1
2146 2764 1
2147 2148 1
2147 2149 1
2147 2150 1
2148 2149 1
2148 2150 1
2148 2173 1
2148 2176 1
2149 2150 1
2149 2172 1
2149 2173 1
2149 2176 1
2149 2761 1
2149 2764 1
2149 2765 1
2149 2790 1
2150 2745 1
2150 2764 1
2150 2765 1
2151 2152 1
2151 2153 1
2151 2154 1
2152 2153 1
2152 2154 1
2152 2155 1
2152 2157 1
2152 2177 1
2152 2180 1
2152 2181 1
2153 2154 1
2153 2177 1
2153 2180 1
2153 2768 1
2153 2769 1
2153 2794 1
2154 2155 1
2154 2157 1
2154 2749 1
2154 2768 1
2154 2769 1
2154 2772 1
2155 2156 1
2155 2157 1
2155 2158 1
2156 2157 1
2156 2158 1
2156 2159 1
2156 2161 1
2156 2181 1
2156 2184 1
2156 2185 1
2157 2158 1
2157 2180 1
2157 2181 1
2157 2184 1
2157 2769 1
2157 2772 1
2157 2773 1
2157 2798 1
2158 2159 1
2158 2161 1
2158 2753 1
2158 2772 1
2158 2773 1
2158 2776 1
2159 2160 1
2159 2161 1
2159 2162 1
2160 2161 1
2160 2162 1
2160 2163 1
2160 2185 1
2160 2188 1
2160 2189 1
2161 2162 1
2161 2184 1
2161 2185 1
2161 2188 1
2161 2773 1
2161 2776 1
2161 2777 1
2161 2802 1
2162 2163 1
2162 2776 1
2162 2777 1
2163 2188 1
2163 2189 1
2163 2192 1
2163 2777 1
2163 2806 1
2164 2165 1
2164 2167 1
2164 2197 1
2164 2198 1
2165 2166 1
2165 2167 1
2165 2168 1
2166 2167 1
2166 2168 1
2166 2169 1
2166 2171 1
2166 2198 1
2166 2201 1
2166 2202 1
2167 2168 1
2167 2197 1
2167 2198 1
2167 2201 1
2167 2781 1
2167 2782 1
2167 2783 1
2167 2815 1
2168 2169 1
2168 2171 1
2168 2758 1
2168 2782 1
2168 2783 1
2168 2786 1
2169 2170 1
2169 2171 1
2169 2172 1
2170 2171 1
2170 2172 1
2170 2173 1
2170 2175 1
2170 2202 1
2170 2205 1
2170 2206 1
2171 2172 1
2171 2201 1
2171 2202 1
2171 2205 1
2171 2783 1
2171 2786 1
2171 2787 1
2171 2819 1
2172 2173 1
2172 2175 1
2172 2761 1
2172 2786 1
2172 2787 1
2172 2790 1
2173 2174 1
2173 2175 1
2173 2176 1
2174 2175 1
2174 2176 1
2174 2206 1
2174 2209 1
2175 2176 1
2175 2205 1
2175 2206 1
2175 2209 1
2175 2787 1
2175 2790 1
2175 2791 1
2175 2823 1
2176 2765 1
2176 2790 1
2176 2791 1
2177 2178 1
2177 2179 1
2177 2180 1
2178 2179 1
2178 2180 1
2178 2181 1
2178 2183 1
2178 2210 1
2178 2213 1
2178 2214 1
2179 2180 1
2179 2210 1
2179 2213 1
2179 2794 1
2179 2795 1
2179 2827 1
2180 2181 1
2180 2183 1
2180 2769 1
2180 2794 1
2180 2795 1
2180 2798 1
2181 2182 1
2181 2183 1
2181 2184 1
2182 2183 1
2182 2184 1
2182 2185 1
2182 2187 1
2182 2214 1
2182 2217 1
2182 2218 1
2183 2184 1
2183 2213 1
2183 2214 1
2183 2217 1
2183 2795 1
2183 2798 1
2183 2799 1
2183 2831 1
2184 2185 1
2184 2187 1
2184 2773 1
2184 2798 1
2184 2799 1
2184 2802 1
2185 2186 1
2185 2187 1
2185 2188 1
2186 2187 1
2186 2188 1
2186 2189 1
2186 2191 1
2186 2218 1
2186 2221 1
2186 2222 1
2187 2188 1
2187 2217 1
2187 2218 1
2187 2221 1
2187 2799 1
2187 2802 1
2187 2803 1
2187 2835 1
2188 2189 1
2188 2191 1
2188 2777 1
2188 2802 1
2188 2803 1
2188 2806 1
2189 2190 1
2189 2191 1
2189 2192 1
2190 2191 1
2190 2192 1
2190 2193 1
2190 2222 1
2190 2225 1
2190 2226 1
2191 2192 1
2191 2221 1
2191 2222 1
2191 2225 1
2191 2803 1
2191 2806 1
2191 2807 1
2191 2839 1
2192 2193 1
2192 2806 1
2192 2807 1
2193 2225 1
2193 2226 1
2193 2229 1
2193 2807 1
2193 2843 1
2194 2196 1
2194 2234 1
2194 2237 1
2194 2238 1
2195 2196 1
2195 2197 1
2195 2198 1
2195 2200 1
2195 2238 1
2195 2241 1
2195 2242 1
2196 2197 1
2196 2237 1
2196 2238 1
2196 2241 1
2196 2811 1
2196 2812 1
2196 2855 1
2197 2198 1
2197 2200 1
2197 2781 1
2197 2812 1
2197 2815 1
2198 2199 1
2198 2200 1
2198 2201 1
2199 2200 1
2199 2201 1
2199 2202 1
2199 2204 1
2199 2242 1
2199 2245 1
2199 2246 1
2200 2201 1
2200 2241 1
2200 2242 1
2200 2245 1
2200 2812 1
2200 2815 1
2200 2816 1
2200 2859 1
2201 2202 1
2201 2204 1
2201 2783 1
2201 2815 1
2201 2816 1
2201 2819 1
2202 2203 1
2202 2204 1
2202 2205 1
2203 2204 1
2203 2205 1
2203 2206 1
2203 2208 1
2203 2246 1
2203 2249 1
2203 2250 1
2204 2205 1
2204 2245 1
2204 2246 1
2204 2249 1
2204 2816 1
2204 2819 1
2204 2820 1
2204 2863 1
2205 2206 1
2205 2208 1
2205 2787 1
2205 2819 1
2205 2820 1
2205 2823 1
2206 2207 1
2206 2208 1
2206 2209 1
2207 2208 1
2207 2209 1
2207 2250 1
2207 2253 1
2208 2209 1
2208 2249 1
2208 2250 1
2208 2253 1
2208 2820 1
2208 2823 1
2208 2824 1
2208 2867 1
2209 2791 1
2209 2823 1
2209 2824 1
2210 2211 1
2210 2212 1
2210 2213 1
2211 2212 1
2211 2213 1
2211 2214 1
2211 2216 1
2211 2254 1
2211 2257 1
2211 2258 1
2212 2213 1
2212 2254 1
2212 2257 1
2212 2827 1
2212 2828 1
2212 2871 1
2213 2214 1
2213 2216 1
2213 2795 1
2213 2827 1
2213 2828 1
2213 2831 1
2214 2215 1
2214 2216 1
2214 2217 1
2215 2216 1
2215 2217 1
2215 2218 1
2215 2220 1
2215 2258 1
2215 2261 1
2215 2262 1
2216 2217 1
2216 2257 1
2216 2258 1
2216 2261 1
2216 2828 1
2216 2831 1
2216 2832 1
2216 2875 1
2217 2218 1
2217 2220 1
2217 2799 1
2217 2831 1
2217 2832 1
2217 2835 1
2218 2219 1
2218 2220 1
2218 2221 1
2219 2220 1
2219 2221 1
2219 2222 1
2219 2224 1
2219 2262 1
2219 2265 1
2219 2266 1
2220 2221 1
2220 2261 1
2220 2262 1
2220 2265 1
2220 2832 1
2220 2835 1
2220 2836 1
2220 2879 1
2221 2222 1
2221 2224 1
2221 2803 1
2221 2835 1
2221 2836 1
2221 2839 1
2222 2223 1
2222 2224 1
2222 2225 1
2223 2224 1
2223 2225 1
2223 2226 1
2223 2228 1
2223 2266 1
2223 2269 1
2223 2270 1
2224 2225 1
2224 2265 1
2224 2266 1
2224 2269 1
2224 2836 1
2224 2839 1
2224 2840 1
2224 2883 1
2225 2226 1
2225 2228 1
2225 2807 1
2225 2839 1
2225 2840 1
2225 2843 1
2226 2227 1
2226 2228 1
2226 2229 1
2227 2228 1
2227 2229 1
2227 2231 1
2227 2270 1
2227 2273 1
2227 2274 1
2228 2229 1
2228 2269 1
2228 2270 1
2228 2273 1
2228 2840 1
2228 2843 1
2228 2844 1
2228 2887 1
2229 2231 1
2229 2843 1
2229 2844 1
2230 2231 1
2230 2274 1
2230 2277 1
2230 2278 1
2231 2273 1
2231 2274 1
2231 2277 1
2231 2844 1
2231 2847 1
2231 2891 1
2232 2233 1
2232 2234 1
2232 2236 1
2232 2296 1
2232 2299 1
2232 2300 1
2233 2295 1
2233 2296 1
2233 2299 1
2233 2849 1
2233 2913 1
2234 2235 1
2234 2236 1
2234 2237 1
2235 2236 1
2235 2237 1
2235 2238 1
2235 2240 1
2235 2300 1
2235 2303 1
2235 2304 1
2236 2237 1
2236 2299 1
2236 2300 1
2236 2303 1
2236 2849 1
2236 2851 1
2236 2852 1
2236 2917 1
2237 2238 1
2237 2240 1
2237 2811 1
2237 2851 1
2237 2852 1
2237 2855 1
2238 2239 1
2238 2240 1
2238 2241 1
2239 2240 1
2239 2241 1
2239 2242 1
2239 2244 1
2239 2304 1
2239 2307 1
2239 2308 1
2240 2241 1
2240 2303 1
2240 2304 1
2240 2307 1
2240 2852 1
2240 2855 1
2240 2856 1
2240 2921 1
2241 2242 1
2241 2244 1
2241 2812 1
2241 2855 1
2241 2856 1
2241 2859 1
2242 2243 1
2242 2244 1
2242 2245 1
2243 2244 1
2243 2245 1
2243 2246 1
2243 2248 1
2243 2308 1
2243 2311 1
2243 2312 1
2244 2245 1
2244 2307 1
2244 2308 1
2244 2311 1
2244 2856 1
2244 2859 1
2244 2860 1
2244 2925 1
2245 2246 1
2245 2248 1
2245 2816 1
2245 2859 1
2245 2860 1
2245 2863 1
2246 2247 1
2246 2248 1
2246 2249 1
2247 2248 1
2247 2249 1
2247 2250 1
2247 2252 1
2247 2312 1
2247 2315 1
2247 2316 1
2248 2249 1
2248 2311 1
2248 2312 1
2248 2315 1
2248 2860 1
2248 2863 1
2248 2864 1
2248 2929 1
2249 2250 1
2249 2252 1
2249 2820 1
2249 2863 1
2249 2864 1
2249 2867 1
2250 2251 1
2250 2252 1
2250 2253 1
2251 2252 1
2251 2253 1
2251 2316 1
2251 2319 1
2252 2253 1
2252 2315 1
2252 2316 1
2252 2319 1
2252 2864 1
2252 2867 1
2252 2868 1
2252 2933 1
2253 2824 1
2253 2867 1
2253 2868 1
2254 2255 1
2254 2256 1
2254 2257 1
2255 2256 1
2255 2257 1
2255 2258 1
2255 2260 1
2255 2320 1
2255 2323 1
2255 2324 1
2256 2257 1
2256 2320 1
2256 2323 1
2256 2871 1
2256 2872 1
2256 2937 1
2257 2258 1
2257 2260 1
2257 2828 1
2257 2871 1
2257 2872 1
2257 2875 1
2258 2259 1
2258 2260 1
2258 2261 1
2259 2260 1
2259 2261 1
2259 2262 1
2259 2264 1
2259 2324 1
2259 2327 1
2259 2328 1
2260 2261 1
2260 2323 1
2260 2324 1
2260 2327 1
2260 2872 1
2260 2875 1
2260 2876 1
2260 2941 1
2261 2262 1
2261 2264 1
2261 2832 1
2261 2875 1
2261 2876 1
2261 2879 1
2262 2263 1
2262 2264 1
2262 2265 1
2263 2264 1
2263 2265 1
2263 2266 1
2263 2268 1
2263 2328 1
2263 2331 1
2263 2332 1
2264 2265 1
2264 2327 1
2264 2328 1
2264 2331 1
2264 2876 1
2264 2879 1
2264 2880 1
2264 2945 1
2265 2266 1
2265 2268 1
2265 2836 1
2265 2879 1
2265 2880 1
2265 2883 1
2266 2267 1
2266 2268 1
2266 2269 1
2267 2268 1
2267 2269 1
2267 2270 1
2267 2272 1
2267 2332 1
2267 2335 1
2267 2336 1
2268 2269 1
2268 2331 1
2268 2332 1
2268 2335 1
2268 2880 1
2268 2883 1
2268 2884 1
2268 2949 1
2269 2270 1
2269 2272 1
2269 2840 1
2269 2883 1
2269 2884 1
2269 2887 1
2270 2271 1
2270 2272 1
2270 2273 1
2271 2272 1
2271 2273 1
2271 2274 1
2271 2276 1
2271 2336 1
2271 2339 1
2271 2340 1
2272 2273 1
2272 2335 1
2272 2336 1
2272 2339 1
2272 2884 1
2272 2887 1
2272 2888 1
2272 2953 1
2273 2274 1
2273 2276 1
2273 2844 1
2273 2887 1
2273 2888 1
2273 2891 1
2274 2275 1
2274 2276 1
2274 2277 1
2275 2276 1
2275 2277 1
2275 2278 1
2275 2280 1
2275 2340 1
2275 2343 1
2275 2344 1
2276 2277 1
2276 2339 1
2276 2340 1
2276 2343 1
2276 2888 1
2276 2891 1
2276 2892 1
2276 2957 1
2277 2278 1
2277 2280 1
2277 2847 1
2277 2891 1
2277 2892 1
2277 2895 1
2278 2279 1
2278 2280 1
2278 2281 1
2279 2280 1
2279 2281 1
2279 2282 1
2279 2284 1
2279 2344 1
2279 2347 1
2279 2348 1
2280 2281 1
2280 2343 1
2280 2344 1
2280 2347 1
2280 2892 1
2280 2895 1
2280 2896 1
2280 2961 1
2281 2282 1
2281 2284 1
2281 2895 1
2281 2896 1
2281 2899 1
2282 2283 1
2282 2284 1
2283 2284 1
2283 2286 1
2283 2348 1
2283 2351 1
2283 2352 1
2284 2347 1
2284 2348 1
2284 2351 1
2284 2896 1
2284 2899 1
2284 2900 1
2284 2965 1
2285 2286 1
2285 2288 1
2285 2352 1
2285 2355 1
2285 2356 1
2286 2351 1
2286 2352 1
2286 2355 1
2286 2900 1
2286 2902 1
2286 2969 1
2287 2288 1
2287 2290 1
2287 2356 1
2287 2359 1
2287 2360 1
2288 2355 1
2288 2356 1
2288 2359 1
2288 2902 1
2288 2904 1
2288 2973 1
2289 2290 1
2289 2291 1
2289 2292 1
2289 2294 1
2289 2360 1
2289 2363 1
2289 2364 1
2290 2291 1
2290 2359 1
2290 2360 1
2290 2363 1
2290 2904 1
2290 2906 1
2290 2977 1
2291 2292 1
2291 2294 1
2291 2906 1
2291 2909 1
2292 2293 1
2292 2294 1
2292 2295 1
2293 2294 1
2293 2295 1
2293 2296 1
2293 2298 1
2293 2364 1
2293 2367 1
2293 2368 1
2294 2295 1
2294 2363 1
2294 2364 1
2294 2367 1
2294 2906 1
2294 2909 1
2294 2910 1
2294 2981 1
2295 2296 1
2295 2298 1
2295 2909 1
2295 2910 1
2295 2913 1
2296 2297 1
2296 2298 1
2296 2299 1
2297 2298 1
2297 2299 1
2297 2300 1
2297 2302 1
2297 2368 1
2297 2371 1
2297 2372 1
2298 2299 1
2298 2367 1
2298 2368 1
2298 2371 1
2298 2910 1
2298 2913 1
2298 2914 1
2298 2985 1
2299 2300 1
2299 2302 1
2299 2849 1
2299 2913 1
2299 2914 1
2299 2917 1
2300 2301 1
2300 2302 1
2300 2303 1
2301 2302 1
2301 2303 1
2301 2304 1
2301 2306 1
2301 2372 1
2301 2375 1
2301 2376 1
2302 2303 1
2302 2371 1
2302 2372 1
2302 2375 1
2302 2914 1
2302 2917 1
2302 2918 1
2302 2989 1
2303 2304 1
2303 2306 1
2303 2852 1
2303 2917 1
2303 2918 1
2303 2921 1
2304 2305 1
2304 2306 1
2304 2307 1
2305 2306 1
2305 2307 1
2305 2308 1
2305 2310 1
2305 2376 1
2305 2379 1
2305 2380 1
2306 2307 1
2306 2375 1
2306 2376 1
2306 2379 1
2306 2918 1
2306 2921 1
2306 2922 1
2306 2993 1
2307 2308 1
2307 2310 1
2307 2856 1
2307 2921 1
2307 2922 1
2307 2925 1
2308 2309 1
2308 2310 1
2308 2311 1
2309 2310 1
2309 2311 1
2309 2312 1
2309 2314 1
2309 2380 1
2309 2383 1
2309 2384 1
2310 2311 1
2310 2379 1
2310 2380 1
2310 2383 1
2310 2922 1
2310 2925 1
2310 2926 1
2310 2997 1
2311 2312 1
2311 2314 1
2311 2860 1
2311 2925 1
2311 2926 1
2311 2929 1
2312 2313 1
2312 2314 1
2312 2315 1
2313 2314 1
2313 2315 1
2313 2316 1
2313 2318 1
2313 2384 1
2313 2387 1
2313 2388 1
2314 2315 1
2314 2383 1
2314 2384 1
2314 2387 1
2314 2926 1
2314 2929 1
2314 2930 1
2314 3001 1
2315 2316 1
2315 2318 1
2315 2864 1
2315 2929 1
2315 2930 1
2315 2933 1
2316 2317 1
2316 2318 1
2316 2319 1
2317 2318 1
2317 2319 1
2317 2388 1
2317 2391 1
2318 2319 1
2318 2387 1
2318 2388 1
2318 2391 1
2318 2930 1
2318 2933 1
2318 2934 1
2318 3005 1
2319 2868 1
2319 2933 1
2319 2934 1
2320 2321 1
2320 2322 1
2320 2323 1
2321 2322 1
2321 2323 1
2321 2324 1
2321 2326 1
2322 2323 1
2322 2937 1
2322 2938 1
2323 2324 1
2323 2326 1
2323 2872 1
2323 2937 1
2323 2938 1
2323 2941 1
2324 2325 1
2324 2326 1
2324 2327 1
2325 2326 1
2325 2327 1
2325 2328 1
2325 2330 1
2326 2327 1
2326 2938 1
2326 2941 1
2326 2942 1
2327 2328 1
2327 2330 1
2327 2876 1
2327 2941 1
2327 2942 1
2327 2945 1
2328 2329 1
2328 2330 1
2328 2331 1
2329 2330 1
2329 2331 1
2329 2332 1
2329 2334 1
2330 2331 1
2330 2942 1
2330 2945 1
2330 2946 1
2331 2332 1
2331 2334 1
2331 2880 1
2331 2945 1
2331 2946 1
2331 2949 1
2332 2333 1
2332 2334 1
2332 2335 1
2333 2334 1
2333 2335 1
2333 2336 1
2333 2338 1
2334 2335 1
2334 2946 1
2334 2949 1
2334 2950 1
2335 2336 1
2335 2338 1
2335 2884 1
2335 2949 1
2335 2950 1
2335 2953 1
2336 2337 1
2336 2338 1
2336 2339 1
2337 2338 1
2337 2339 1
2337 2340 1
2337 2342 1
2338 2339 1
2338 2950 1
2338 2953 1
2338 2954 1
2339 2340 1
2339 2342 1
2339 2888 1
2339 2953 1
2339 2954 1
2339 2957 1
2340 2341 1
2340 2342 1
2340 2343 1
2341 2342 1
2341 2343 1
2341 2344 1
2341 2346 1
2342 2343 1
2342 2954 1
2342 2957 1
2342 2958 1
2343 2344 1
2343 2346 1
2343 2892 1
2343 2957 1
2343 2958 1
2343 2961 1
2344 2345 1
2344 2346 1
2344 2347 1
2345 2346 1
2345 2347 1
2345 2348 1
2345 2350 1
2346 2347 1
2346 2958 1
2346 2961 1
2346 2962 1
2347 2348 1
2347 2350 1
2347 2896 1
2347 2961 1
2347 2962 1
2347 2965 1
2348 2349 1
2348 2350 1
2348 2351 1
2349 2350 1
2349 2351 1
2349 2352 1
2349 2354 1
2350 2351 1
2350 2962 1
2350 2965 1
2350 2966 1
2351 2352 1
2351 2354 1
2351 2900 1
2351 2965 1
2351 2966 1
2351 2969 1
2352 2353 1
2352 2354 1
2352 2355 1
2353 2354 1
2353 2355 1
2353 2356 1
2353 2358 1
2354 2355 1
2354 2966 1
2354 2969 1
2354 2970 1
2355 2356 1
2355 2358 1
2355 2902 1
2355 2969 1
2355 2970 1
2355 2973 1
2356 2357 1
2356 2358 1
2356 2359 1
2357 2358 1
2357 2359 1
2357 2360 1
2357 2362 1
2358 2359 1
2358 2970 1
2358 2973 1
2358 2974 1
2359 2360 1
2359 2362 1
2359 2904 1
2359 2973 1
2359 2974 1
2359 2977 1
2360 2361 1
2360 2362 1
2360 2363 1
2361 2362 1
2361 2363 1
2361 2364 1
2361 2366 1
2362 2363 1
2362 2974 1
2362 2977 1
2362 2978 1
2363 2364 1
2363 2366 1
2363 2906 1
2363 2977 1
2363 2978 1
2363 2981 1
2364 2365 1
2364 2366 1
2364 2367 1
2365 2366 1
2365 2367 1
2365 2368 1
2365 2370 1
2366 2367 1
2366 2978 1
2366 2981 1
2366 2982 1
2367 2368 1
2367 2370 1
2367 2910 1
2367 2981 1
2367 2982 1
2367 2985 1
2368 2369 1
2368 2370 1
2368 2371 1
2369 2370 1
2369 2371 1
2369 2372 1
2369 2374 1
2370 2371 1
2370 2982 1
2370 2985 1
2370 2986 1
2371 2372 1
2371 2374 1
2371 2914 1
2371 2985 1
2371 2986 1
2371 2989 1
2372 2373 1
2372 2374 1
2372 2375 1
2373 2374 1
2373 2375 1
2373 2376 1
2373 2378 1
2374 2375 1
2374 2986 1
2374 2989 1
2374 2990 1
2375 2376 1
2375 2378 1
2375 2918 1
2375 2989 1
2375 2990 1
2375 2993 1
2376 2377 1
2376 2378 1
2376 2379 1
2377 2378 1
2377 2379 1
2377 2380 1
2377 2382 1
2378 2379 1
2378 2990 1
2378 2993 1
2378 2994 1
2379 2380 1
2379 2382 1
2379 2922 1
2379 2993 1
2379 2994 1
2379 2997 1
2380 2381 1
2380 2382 1
2380 2383 1
2381 2382 1
2381 2383 1
2381 2384 1
2381 2386 1
2382 2383 1
2382 2994 1
2382 2997 1
2382 2998 1
2383 2384 1
2383 2386 1
2383 2926 1
2383 2997 1
2383 2998 1
2383 3001 1
2384 2385 1
2384 2386 1
2384 2387 1
2385 2386 1
2385 2387 1
2385 2388 1
2385 2390 1
2386 2387 1
2386 2998 1
2386 3001 1
2386 3002 1
2387 2388 1
2387 2390 1
2387 2930 1
2387 3001 1
2387 3002 1
2387 3005 1
2388 2389 1
2388 2390 1
2388 2391 1
2389 2390 1
2389 2391 1
2390 2391 1
2390 3002 1
2390 3005 1
2390 3006 1
2391 2934 1
2391 3005 1
2391 3006 1
2392 2393 1
2392 2394 1
2392 2395 1
2393 2394 1
2393 2395 1
2393 2396 1
2393 2398 1
2393 2464 1
2393 2467 1
2393 2468 1
2394 2395 1
2394 2464 1
2394 2467 1
2394 3009 1
2394 3010 1
2394 3081 1
2395 2396 1
2395 2398 1
2395 3009 1
2395 3010 1
2395 3013 1
2396 2397 1
2396 2398 1
2396 2399 1
2397 2398 1
2397 2399 1
2397 2400 1
2397 2402 1
2397 2468 1
2397 2471 1
2397 2472 1
2398 2399 1
2398 2467 1
2398 2468 1
2398 2471 1
2398 3010 1
2398 3013 1
2398 3014 1
2398 3085 1
2399 2400 1
2399 2402 1
2399 3013 1
2399 3014 1
2399 3017 1
2400 2401 1
2400 2402 1
2400 2403 1
2401 2402 1
2401 2403 1
2401 2404 1
2401 2406 1
2401 2472 1
2401 2475 1
2401 2476 1
2402 2403 1
2402 2471 1
2402 2472 1
2402 2475 1
2402 3014 1
2402 3017 1
2402 3018 1
2402 3089 1
2403 2404 1
2403 2406 1
2403 3017 1
2403 3018 1
2403 3021 1
2404 2405 1
2404 2406 1
2404 2407 1
2405 2406 1
2405 2407 1
2405 2408 1
2405 2410 1
2405 2476 1
2405 2479 1
2405 2480 1
2406 2407 1
2406 2475 1
2406 2476 1
2406 2479 1
2406 3018 1
2406 3021 1
2406 3022 1
2406 3093 1
2407 2408 1
2407 2410 1
2407 3021 1
2407 3022 1
2407 3025 1
2408 2409 1
2408 2410 1
2408 2411 1
2409 2410 1
2409 2411 1
2409 2412 1
2409 2414 1
2409 2480 1
2409 2483 1
2409 2484 1
2410 2411 1
2410 2479 1
2410 2480 1
2410 2483 1
2410 3022 1
2410 3025 1
2410 3026 1
2410 3097 1
2411 2412 1
2411 2414 1
2411 3025 1
2411 3026 1
2411 3029 1
2412 2413 1
2412 2414 1
2412 2415 1
2413 2414 1
2413 2415 1
2413 2416 1
2413 2418 1
2413 2484 1
2413 2487 1
2413 2488 1
2414 2415 1
2414 2483 1
2414 2484 1
2414 2487 1
2414 3026 1
2414 3029 1
2414 3030 1
2414 3101 1
2415 2416 1
2415 2418 1
2415 3029 1
2415 3030 1
2415 3033 1
2416 2417 1
2416 2418 1
2416 2419 1
2417 2418 1
2417 2419 1
2417 2420 1
2417 2422 1
2417 2488 1
2417 2491 1
2417 2492 1
2418 2419 1
2418 2487 1
2418 2488 1
2418 2491 1
2418 3030 1
2418 3033 1
2418 3034 1
2418 3105 1
2419 2420 1
2419 2422 1
2419 3033 1
2419 3034 1
2419 3037 1
2420 2421 1
2420 2422 1
2420 2423 1
2421 2422 1
2421 2423 1
2421 2424 1
2421 2426 1
2421 2492 1
2421 2495 1
2421 2496 1
2422 2423 1
2422 2491 1
2422 2492 1
2422 2495 1
2422 3034 1
2422 3037 1
2422 3038 1
2422 3109 1
2423 2424 1
2423 2426 1
2423 3037 1
2423 3038 1
2423 3041 1
2424 2425 1
2424 2426 1
2424 2427 1
2425 2426 1
2425 2427 1
2425 2428 1
2425 2430 1
2425 2496 1
2425 2498 1
2425 2499 1
2426 2427 1
2426 2495 1
2426 2496 1
2426 2498 1
2426 3038 1
2426 3041 1
2426 3042 1
2426 3113 1
2427 2428 1
2427 2430 1
2427 3041 1
2427 3042 1
2427 3045 1
2428 2429 1
2428 2430 1
2428 2431 1
2429 2430 1
2429 2431 1
2429 2432 1
2429 2434 1
2429 2499 1
2429 2500 1
2429 2501 1
2430 2431 1
2430 2498 1
2430 2499 1
2430 2500 1
2430 3042 1
2430 3045 1
2430 3046 1
2430 3116 1
2431 2432 1
2431 2434 1
2431 3045 1
2431 3046 1
2431 3049 1
2432 2433 1
2432 2434 1
2432 2435 1
2433 2434 1
2433 2435 1
2433 2436 1
2433 2438 1
2433 2501 1
2433 2504 1
2433 2505 1
2434 2435 1
2434 2500 1
2434 2501 1
2434 2504 1
2434 3046 1
2434 3049 1
2434 3050 1
2434 3118 1
2435 2436 1
2435 2438 1
2435 3049 1
2435 3050 1
2435 3053 1
2436 2437 1
2436 2438 1
2436 2439 1
2437 2438 1
2437 2439 1
2437 2440 1
2437 2442 1
2437 2505 1
2437 2508 1
2437 2509 1
2438 2439 1
2438 2504 1
2438 2505 1
2438 2508 1
2438 3050 1
2438 3053 1
2438 3054 1
2438 3122 1
2439 2440 1
2439 2442 1
2439 3053 1
2439 3054 1
2439 3057 1
2440 2441 1
2440 2442 1
2440 2443 1
2441 2442 1
2441 2443 1
2441 2444 1
2441 2446 1
2441 2509 1
2441 2512 1
2441 2513 1
2442 2443 1
2442 2508 1
2442 2509 1
2442 2512 1
2442 3054 1
2442 3057 1
2442 3058 1
2442 3126 1
2443 2444 1
2443 2446 1
2443 3057 1
2443 3058 1
2443 3061 1
2444 2445 1
2444 2446 1
2444 2447 1
2445 2446 1
2445 2447 1
2445 2448 1
2445 2450 1
2445 2513 1
2445 2516 1
2445 2517 1
2446 2447 1
2446 2512 1
2446 2513 1
2446 2516 1
2446 3058 1
2446 3061 1
2446 3062 1
2446 3130 1
2447 2448 1
2447 2450 1
2447 3061 1
2447 3062 1
2447 3065 1
2448 2449 1
2448 2450 1
2448 2451 1
2449 2450 1
2449 2451 1
2449 2452 1
2449 2454 1
2449 2517 1
2449 2520 1
2449 2521 1
2450 2451 1
2450 2516 1
2450 2517 1
2450 2520 1
2450 3062 1
2450 3065 1
2450 3066 1
2450 3134 1
2451 2452 1
2451 2454 1
2451 3065 1
2451 3066 1
2451 3069 1
2452 2453 1
2452 2454 1
2452 2455 1
2453 2454 1
2453 2455 1
2453 2456 1
2453 2458 1
2453 2521 1
2453 2524 1
2453 2525 1
2454 2455 1
2454 2520 1
2454 2521 1
2454 2524 1
2454 3066 1
2454 3069 1
2454 3070 1
2454 3138 1
2455 2456 1
2455 2458 1
2455 3069 1
2455 3070 1
2455 3073 1
2456 2457 1
2456 2458 1
2456 2459 1
2457 2458 1
2457 2459 1
2457 2460 1
2457 2462 1
2457 2525 1
2457 2528 1
2457 2529 1
2458 2459 1
2458 2524 1
2458 2525 1
2458 2528 1
2458 3070 1
2458 3073 1
2458 3074 1
2458 3142 1
2459 2460 1
2459 2462 1
2459 3073 1
2459 3074 1
2459 3077 1
2460 2461 1
2460 2462 1
2460 2463 1
2461 2462 1
2461 2463 1
2461 2529 1
2461 2532 1
2462 2463 1
2462 2528 1
2462 2529 1
2462 2532 1
2462 3074 1
2462 3077 1
2462 3078 1
2462 3146 1
2463 3077 1
2463 3078 1
2464 2465 1
2464 2466 1
2464 2467 1
2465 2466 1
2465 2467 1
2465 2468 1
2465 2470 1
2465 2533 1
2465 2536 1
2465 2537 1
2466 2467 1
2466 2533 1
2466 2536 1
2466 3081 1
2466 3082 1
2466 3150 1
2467 2468 1
2467 2470 1
2467 3010 1
2467 3081 1
2467 3082 1
2467 3085 1
2468 2469 1
2468 2470 1
2468 2471 1
2469 2470 1
2469 2471 1
2469 2472 1
2469 2474 1
2469 2537 1
2469 2540 1
2469 2541 1
2470 2471 1
2470 2536 1
2470 2537 1
2470 2540 1
2470 3082 1
2470 3085 1
2470 3086 1
2470 3154 1
2471 2472 1
2471 2474 1
2471 3014 1
2471 3085 1
2471 3086 1
2471 3089 1
2472 2473 1
2472 2474 1
2472 2475 1
2473 2474 1
2473 2475 1
2473 2476 1
2473 2478 1
2473 2541 1
2473 2544 1
2473 2545 1
2474 2475 1
2474 2540 1
2474 2541 1
2474 2544 1
2474 3086 1
2474 3089 1
2474 3090 1
2474 3158 1
2475 2476 1
2475 2478 1
2475 3018 1
2475 3089 1
2475 3090 1
2475 3093 1
2476 2477 1
2476 2478 1
2476 2479 1
2477 2478 1
2477 2479 1
2477 2480 1
2477 2482 1
2477 2545 1
2477 2548 1
2477 2549 1
2478 2479 1
2478 2544 1
2478 2545 1
2478 2548 1
2478 3090 1
2478 3093 1
2478 3094 1
2478 3162 1
2479 2480 1
2479 2482 1
2479 3022 1
2479 3093 1
2479 3094 1
2479 3097 1
2480 2481 1
2480 2482 1
2480 2483 1
2481 2482 1
2481 2483 1
2481 2484 1
2481 2486 1
2481 2549 1
2481 2552 1
2481 2553 1
2482 2483 1
2482 2548 1
2482 2549 1
2482 2552 1
2482 3094 1
2482 3097 1
2482 3098 1
2482 3166 1
2483 2484 1
2483 2486 1
2483 3026 1
2483 3097 1
2483 3098 1
2483 3101 1
2484 2485 1
2484 2486 1
2484 2487 1
2485 2486 1
2485 2487 1
2485 2488 1
2485 2490 1
2485 2553 1
2485 2555 1
2485 2556 1
2486 2487 1
2486 2552 1
2486 2553 1
2486 2555 1
2486 3098 1
2486 3101 1
2486 3102 1
2486 3170 1
2487 2488 1
2487 2490 1
2487 3030 1
2487 3101 1
2487 3102 1
2487 3105 1
2488 2489 1
2488 2490 1
2488 2491 1
2489 2490 1
2489 2491 1
2489 2492 1
2489 2494 1
2489 2556 1
2490 2491 1
2490 2555 1
2490 2556 1
2490 3102 1
2490 3105 1
2490 3106 1
2490 3173 1
2491 2492 1
2491 2494 1
2491 3034 1
2491 3105 1
2491 3106 1
2491 3109 1
2492 2493 1
2492 2494 1
2492 2495 1
2493 2494 1
2493 2495 1
2493 2496 1
2493 2497 1
2494 2495 1
2494 3106 1
2494 3109 1
2494 3110 1
2495 2496 1
2495 2497 1
2495 3038 1
2495 3109 1
2495 3110 1
2495 3113 1
2496 2497 1
2496 2498 1
2497 2498 1
2497 3110 1
2497 3113 1
2498 2499 1
2498 3042 1
2498 3113 1
2498 3116 1
2499 2500 1
2500 2501 1
2500 2503 1
2500 3046 1
2500 3116 1
2500 3118 1
2501 2502 1
2501 2503 1
2501 2504 1
2502 2503 1
2502 2504 1
2502 2505 1
2502 2507 1
2503 2504 1
2503 3118 1
2503 3119 1
2504 2505 1
2504 2507 1
2504 3050 1
2504 3118 1
2504 3119 1
2504 3122 1
2505 2506 1
2505 2507 1
2505 2508 1
2506 2507 1
2506 2508 1
2506 2509 1
2506 2511 1
2506 2557 1
2507 2508 1
2507 3119 1
2507 3122 1
2507 3123 1
2508 2509 1
2508 2511 1
2508 3054 1
2508 3122 1
2508 3123 1
2508 3126 1
2509 2510 1
2509 2511 1
2509 2512 1
2510 2511 1
2510 2512 1
2510 2513 1
2510 2515 1
2510 2557 1
2510 2558 1
2510 2559 1
2511 2512 1
2511 2557 1
2511 2558 1
2511 3123 1
2511 3126 1
2511 3127 1
2511 3174 1
2512 2513 1
2512 2515 1
2512 3058 1
2512 3126 1
2512 3127 1
2512 3130 1
2513 2514 1
2513 2515 1
2513 2516 1
2514 2515 1
2514 2516 1
2514 2517 1
2514 2519 1
2514 2559 1
2514 2562 1
2514 2563 1
2515 2516 1
2515 2558 1
2515 2559 1
2515 2562 1
2515 3127 1
2515 3130 1
2515 3131 1
2515 3176 1
2516 2517 1
2516 2519 1
2516 3062 1
2516 3130 1
2516 3131 1
2516 3134 1
2517 2518 1
2517 2519 1
2517 2520 1
2518 2519 1
2518 2520 1
2518 2521 1
2518 2523 1
2518 2563 1
2518 2566 1
2518 2567 1
2519 2520 1
2519 2562 1
2519 2563 1
2519 2566 1
2519 3131 1
2519 3134 1
2519 3135 1
2519 3180 1
2520 2521 1
2520 2523 1
2520 3066 1
2520 3134 1
2520 3135 1
2520 3138 1
2521 2522 1
2521 2523 1
2521 2524 1
2522 2523 1
2522 2524 1
2522 2525 1
2522 2527 1
2522 2567 1
2522 2570 1
2522 2571 1
2523 2524 1
2523 2566 1
2523 2567 1
2523 2570 1
2523 3135 1
2523 3138 1
2523 3139 1
2523 3184 1
2524 2525 1
2524 2527 1
2524 3070 1
2524 3138 1
2524 3139 1
2524 3142 1
2525 2526 1
2525 2527 1
2525 2528 1
2526 2527 1
2526 2528 1
2526 2529 1
2526 2531 1
2526 2571 1
2526 2574 1
2526 2575 1
2527 2528 1
2527 2570 1
2527 2571 1
2527 2574 1
2527 3139 1
2527 3142 1
2527 3143 1
2527 3188 1
2528 2529 1
2528 2531 1
2528 3074 1
2528 3142 1
2528 3143 1
2528 3146 1
2529 2530 1
2529 2531 1
2529 2532 1
2530 2531 1
2530 2532 1
2530 2575 1
2530 2578 1
2531 2532 1
2531 2574 1
2531 2575 1
2531 2578 1
2531 3143 1
2531 3146 1
2531 3147 1
2531 3192 1
2532 3078 1
2532 3146 1
2532 3147 1
2533 2534 1
2533 2535 1
2533 2536 1
2534 2535 1
2534 2536 1
2534 2537 1
2534 2539 1
2534 2579 1
2534 2582 1
2534 2583 1
2535 2536 1
2535 2579 1
2535 2582 1
2535 3150 1
2535 3151 1
2535 3196 1
2536 2537 1
2536 2539 1
2536 3082 1
2536 3150 1
2536 3151 1
2536 3154 1
2537 2538 1
2537 2539 1
2537 2540 1
2538 2539 1
2538 2540 1
2538 2541 1
2538 2543 1
2538 2583 1
2538 2586 1
2538 2587 1
2539 2540 1
2539 2582 1
2539 2583 1
2539 2586 1
2539 3151 1
2539 3154 1
2539 3155 1
2539 3200 1
2540 2541 1
2540 2543 1
2540 3086 1
2540 3154 1
2540 3155 1
2540 3158 1
2541 2542 1
2541 2543 1
2541 2544 1
2542 2543 1
2542 2544 1
2542 2545 1
2542 2547 1
2542 2587 1
2542 2590 1
2542 2591 1
2543 2544 1
2543 2586 1
2543 2587 1
2543 2590 1
2543 3155 1
2543 3158 1
2543 3159 1
2543 3204 1
2544 2545 1
2544 2547 1
2544 3090 1
2544 3158 1
2544 3159 1
2544 3162 1
2545 2546 1
2545 2547 1
2545 2548 1
2546 2547 1
2546 2548 1
2546 2549 1
2546 2551 1
2546 2591 1
2546 2594 1
2546 2595 1
2547 2548 1
2547 2590 1
2547 2591 1
2547 2594 1
2547 3159 1
2547 3162 1
2547 3163 1
2547 3208 1
2548 2549 1
2548 2551 1
2548 3094 1
2548 3162 1
2548 3163 1
2548 3166 1
2549 2550 1
2549 2551 1
2549 2552 1
2550 2551 1
2550 2552 1
2550 2553 1
2550 2554 1
2550 2595 1
2551 2552 1
2551 2594 1
2551 2595 1
2551 3163 1
2551 3166 1
2551 3167 1
2551 3212 1
2552 2553 1
2552 2554 1
2552 3098 1
2552 3166 1
2552 3167 1
2552 3170 1
2553 2554 1
2553 2555 1
2554 2555 1
2554 3167 1
2554 3170 1
2555 2556 1
2555 3102 1
2555 3170 1
2555 3173 1
2557 2558 1
2558 2559 1
2558 2561 1
2558 3127 1
2558 3174 1
2558 3176 1
2559 2560 1
2559 2561 1
2559 2562 1
2560 2561 1
2560 2562 1
2560 2563 1
2560 2565 1
2560 2596 1
2560 2597 1
2561 2562 1
2561 2596 1
2561 3176 1
2561 3177 1
2562 2563 1
2562 2565 1
2562 3131 1
2562 3176 1
2562 3177 1
2562 3180 1
2563 2564 1
2563 2565 1
2563 2566 1
2564 2565 1
2564 2566 1
2564 2567 1
2564 2569 1
2564 2597 1
2564 2600 1
2564 2601 1
2565 2566 1
2565 2596 1
2565 2597 1
2565 2600 1
2565 3177 1
2565 3180 1
2565 3181 1
2565 3214 1
2566 2567 1
2566 2569 1
2566 3135 1
2566 3180 1
2566 3181 1
2566 3184 1
2567 2568 1
2567 2569 1
2567 2570 1
2568 2569 1
2568 2570 1
2568 2571 1
2568 2573 1
2568 2601 1
2568 2604 1
2568 2605 1
2569 2570 1
2569 2600 1
2569 2601 1
2569 2604 1
2569 3181 1
2569 3184 1
2569 3185 1
2569 3218 1
2570 2571 1
2570 2573 1
2570 3139 1
2570 3184 1
2570 3185 1
2570 3188 1
2571 2572 1
2571 2573 1
2571 2574 1
2572 2573 1
2572 2574 1
2572 2575 1
2572 2577 1
2572 2605 1
2572 2608 1
2572 2609 1
2573 2574 1
2573 2604 1
2573 2605 1
2573 2608 1
2573 3185 1
2573 3188 1
2573 3189 1
2573 3222 1
2574 2575 1
2574 2577 1
2574 3143 1
2574 3188 1
2574 3189 1
2574 3192 1
2575 2576 1
2575 2577 1
2575 2578 1
2576 2577 1
2576 2578 1
2576 2609 1
2576 2612 1
2577 2578 1
2577 2608 1
2577 2609 1
2577 2612 1
2577 3189 1
2577 3192 1
2577 3193 1
2577 3226 1
2578 3147 1
2578 3192 1
2578 3193 1
2579 2580 1
2579 2581 1
2579 2582 1
2580 2581 1
2580 2582 1
2580 2583 1
2580 2585 1
2580 2613 1
2580 2616 1
2580 2617 1
2581 2582 1
2581 2613 1
2581 2616 1
2581 3196 1
2581 3197 1
2581 3230 1
2582 2583 1
2582 2585 1
2582 3151 1
2582 3196 1
2582 3197 1
2582 3200 1
2583 2584 1
2583 2585 1
2583 2586 1
2584 2585 1
2584 2586 1
2584 2587 1
2584 2589 1
2584 2617 1
2584 2620 1
2584 2621 1
2585 2586 1
2585 2616 1
2585 2617 1
2585 2620 1
2585 3197 1
2585 3200 1
2585 3201 1
2585 3234 1
2586 2587 1
2586 2589 1
2586 3155 1
2586 3200 1
2586 3201 1
2586 3204 1
2587 2588 1
2587 2589 1
2587 2590 1
2588 2589 1
2588 2590 1
2588 2591 1
2588 2593 1
2588 2621 1
2588 2624 1
2588 2625 1
2589 2590 1
2589 2620 1
2589 2621 1
2589 2624 1
2589 3201 1
2589 3204 1
2589 3205 1
2589 3238 1
2590 2591 1
2590 2593 1
2590 3159 1
2590 3204 1
2590 3205 1
2590 3208 1
2591 2592 1
2591 2593 1
2591 2594 1
2592 2593 1
2592 2594 1
2592 2595 1
2592 2625 1
2593 2594 1
2593 2624 1
2593 2625 1
2593 3205 1
2593 3208 1
2593 3209 1
2593 3242 1
2594 2595 1
2594 3163 1
2594 3208 1
2594 3209 1
2594 3212 1
2596 2597 1
2596 2599 1
2596 3177 1
2596 3214 1
2597 2598 1
2597 2599 1
2597 2600 1
2598 2599 1
2598 2600 1
2598 2601 1
2598 2603 1
2598 2626 1
2598 2627 1
2599 2600 1
2599 2626 1
2599 3214 1
2599 3215 1
2600 2601 1
2600 2603 1
2600 3181 1
2600 3214 1
2600 3215 1
2600 3218 1
2601 2602 1
2601 2603 1
2601 2604 1
2602 2603 1
2602 2604 1
2602 2605 1
2602 2607 1
2602 2627 1
2602 2630 1
2602 2631 1
2603 2604 1
2603 2626 1
2603 2627 1
2603 2630 1
2603 3215 1
2603 3218 1
2603 3219 1
2603 3244 1
2604 2605 1
2604 2607 1
2604 3185 1
2604 3218 1
2604 3219 1
2604 3222 1
2605 2606 1
2605 2607 1
2605 2608 1
2606 2607 1
2606 2608 1
2606 2609 1
2606 2611 1
2606 2631 1
2606 2634 1
2606 2635 1
2607 2608 1
2607 2630 1
2607 2631 1
2607 2634 1
2607 3219 1
2607 3222 1
2607 3223 1
2607 3248 1
2608 2609 1
2608 2611 1
2608 3189 1
2608 3222 1
2608 3223 1
2608 3226 1
2609 2610 1
2609 2611 1
2609 2612 1
2610 2611 1
2610 2612 1
2610 2635 1
2610 2638 1
2611 2612 1
2611 2634 1
2611 2635 1
2611 2638 1
2611 3223 1
2611 3226 1
2611 3227 1
2611 3252 1
2612 3193 1
2612 3226 1
2612 3227 1
2613 2614 1
2613 2615 1
2613 2616 1
2614 2615 1
2614 2616 1
2614 2617 1
2614 2619 1
2614 2639 1
2614 2642 1
2614 2643 1
2615 2616 1
2615 2639 1
2615 2642 1
2615 3230 1
2615 3231 1
2615 3256 1
2616 2617 1
2616 2619 1
2616 3197 1
2616 3230 1
2616 3231 1
2616 3234 1
2617 2618 1
2617 2619 1
2617 2620 1
2618 2619 1
2618 2620 1
2618 2621 1
2618 2623 1
2618 2643 1
2618 2646 1
2618 2647 1
2619 2620 1
2619 2642 1
2619 2643 1
2619 2646 1
2619 3231 1
2619 3234 1
2619 3235 1
2619 3260 1
2620 2621 1
2620 2623 1
2620 3201 1
2620 3234 1
2620 3235 1
2620 3238 1
2621 2622 1
2621 2623 1
2621 2624 1
2622 2623 1
2622 2624 1
2622 2625 1
2622 2647 1
2622 2649 1
2623 2624 1
2623 2646 1
2623 2647 1
2623 2649 1
2623 3235 1
2623 3238 1
2623 3239 1
2623 3264 1
2624 2625 1
2624 3205 1
2624 3238 1
2624 3239 1
2624 3242 1
2626 2627 1
2626 2629 1
2626 3215 1
2626 3244 1
2627 2628 1
2627 2629 1
2627 2630 1
2628 2629 1
2628 2630 1
2628 2631 1
2628 2633 1
2628 2651 1
2628 2652 1
2629 2630 1
2629 2651 1
2629 3244 1
2629 3245 1
2630 2631 1
2630 2633 1
2630 3219 1
2630 3244 1
2630 3245 1
2630 3248 1
2631 2632 1
2631 2633 1
2631 2634 1
2632 2633 1
2632 2634 1
2632 2635 1
2632 2637 1
2632 2652 1
2632 2655 1
2632 2656 1
2633 2634 1
2633 2651 1
2633 2652 1
2633 2655 1
2633 3245 1
2633 3248 1
2633 3249 1
2633 3269 1
2634 2635 1
2634 2637 1
2634 3223 1
2634 3248 1
2634 3249 1
2634 3252 1
2635 2636 1
2635 2637 1
2635 2638 1
2636 2637 1
2636 2638 1
2636 2656 1
2636 2659 1
2637 2638 1
2637 2655 1
2637 2656 1
2637 2659 1
2637 3249 1
2637 3252 1
2637 3253 1
2637 3273 1
2638 3227 1
2638 3252 1
2638 3253 1
2639 2640 1
2639 2641 1
2639 2642 1
2640 2641 1
2640 2642 1
2640 2643 1
2640 2645 1
2640 2660 1
2640 2663 1
2640 2664 1
2641 2642 1
2641 2660 1
2641 2663 1
2641 3256 1
2641 3257 1
2641 3277 1
2642 2643 1
2642 2645 1
2642 3231 1
2642 3256 1
2642 3257 1
2642 3260 1
2643 2644 1
2643 2645 1
2643 2646 1
2644 2645 1
2644 2646 1
2644 2647 1
2644 2648 1
2644 2664 1
2644 2667 1
2644 2668 1
2645 2646 1
2645 2663 1
2645 2664 1
2645 2667 1
2645 3257 1
2645 3260 1
2645 3261 1
2645 3281 1
2646 2647 1
2646 2648 1
2646 3235 1
2646 3260 1
2646 3261 1
2646 3264 1
2647 2648 1
2647 2649 1
2648 2649 1
2648 2667 1
2648 2668 1
2648 3261 1
2648 3264 1
2648 3285 1
2649 3239 1
2649 3264 1
2650 2651 1
2650 2652 1
2650 2654 1
2650 2669 1
2651 2652 1
2651 2654 1
2651 3245 1
2651 3267 1
2651 3269 1
2652 2653 1
2652 2654 1
2652 2655 1
2653 2654 1
2653 2655 1
2653 2656 1
2653 2658 1
2653 2669 1
2653 2672 1
2653 2673 1
2654 2655 1
2654 2669 1
2654 2672 1
2654 3267 1
2654 3269 1
2654 3270 1
2654 3286 1
2655 2656 1
2655 2658 1
2655 3249 1
2655 3269 1
2655 3270 1
2655 3273 1
2656 2657 1
2656 2658 1
2656 2659 1
2657 2658 1
2657 2659 1
2657 2673 1
2657 2676 1
2658 2659 1
2658 2672 1
2658 2673 1
2658 2676 1
2658 3270 1
2658 3273 1
2658 3274 1
2658 3290 1
2659 3253 1
2659 3273 1
2659 3274 1
2660 2661 1
2660 2662 1
2660 2663 1
2661 2662 1
2661 2663 1
2661 2664 1
2661 2666 1
2661 2677 1
2661 2680 1
2661 2681 1
2662 2663 1
2662 2677 1
2662 2680 1
2662 3277 1
2662 3278 1
2662 3294 1
2663 2664 1
2663 2666 1
2663 3257 1
2663 3277 1
2663 3278 1
2663 3281 1
2664 2665 1
2664 2666 1
2664 2667 1
2665 2666 1
2665 2667 1
2665 2668 1
2665 2681 1
2665 2684 1
2666 2667 1
2666 2680 1
2666 2681 1
2666 2684 1
2666 3278 1
2666 3281 1
2666 3282 1
2666 3298 1
2667 2668 1
2667 3261 1
2667 3281 1
2667 3282 1
2667 3285 1
2669 2670 1
2669 2671 1
2669 2672 1
2670 2671 1
2670 2672 1
2670 2673 1
2670 2675 1
2670 2685 1
2670 2687 1
2670 2688 1
2671 2672 1
2671 2685 1
2671 2687 1
2671 3286 1
2671 3287 1
2671 3302 1
2672 2673 1
2672 2675 1
2672 3270 1
2672 3286 1
2672 3287 1
2672 3290 1
2673 2674 1
2673 2675 1
2673 2676 1
2674 2675 1
2674 2676 1
2674 2688 1
2674 2691 1
2675 2676 1
2675 2687 1
2675 2688 1
2675 2691 1
2675 3287 1
2675 3290 1
2675 3291 1
2675 3305 1
2676 3274 1
2676 3290 1
2676 3291 1
2677 2678 1
2677 2679 1
2677 2680 1
2678 2679 1
2678 2680 1
2678 2681 1
2678 2683 1
2678 2692 1
2678 2695 1
2678 2696 1
2679 2680 1
2679 2692 1
2679 2695 1
2679 3294 1
2679 3295 1
2679 3309 1
2680 2681 1
2680 2683 1
2680 3278 1
2680 3294 1
2680 3295 1
2680 3298 1
2681 2682 1
2681 2683 1
2681 2684 1
2682 2683 1
2682 2684 1
2682 2696 1
2682 2698 1
2683 2684 1
2683 2695 1
2683 2696 1
2683 2698 1
2683 3295 1
2683 3298 1
2683 3299 1
2683 3313 1
2684 3282 1
2684 3298 1
2684 3299 1
2685 2686 1
2685 2687 1
2686 2687 1
2686 2688 1
2686 2690 1
2686 2700 1
2686 2701 1
2687 2688 1
2687 2690 1
2687 3287 1
2687 3302 1
2687 3303 1
2687 3305 1
2688 2689 1
2688 2690 1
2688 2691 1
2689 2690 1
2689 2691 1
2689 2701 1
2689 2704 1
2690 2691 1
2690 2700 1
2690 2701 1
2690 2704 1
2690 3303 1
2690 3305 1
2690 3306 1
2690 3318 1
2691 3291 1
2691 3305 1
2691 3306 1
2692 2693 1
2692 2694 1
2692 2695 1
2693 2694 1
2693 2695 1
2693 2696 1
2693 2697 1
2693 2705 1
2693 2708 1
2693 2709 1
2694 2695 1
2694 2705 1
2694 2708 1
2694 3309 1
2694 3310 1
2694 3322 1
2695 2696 1
2695 2697 1
2695 3295 1
2695 3309 1
2695 3310 1
2695 3313 1
2696 2697 1
2696 2698 1
2697 2698 1
2697 2708 1
2697 2709 1
2697 3310 1
2697 3313 1
2697 3326 1
2698 3299 1
2698 3313 1
2699 2700 1
2699 2701 1
2699 2703 1
2699 2712 1
2699 2713 1
2700 2701 1
2700 2703 1
2700 3303 1
2700 3316 1
2700 3318 1
2701 2702 1
2701 2703 1
2701 2704 1
2702 2703 1
2702 2704 1
2702 2713 1
2702 2716 1
2703 2704 1
2703 2712 1
2703 2713 1
2703 2716 1
2703 3316 1
2703 3318 1
2703 3319 1
2703 3330 1
2704 3306 1
2704 3318 1
2704 3319 1
2705 2706 1
2705 2707 1
2705 2708 1
2706 2707 1
2706 2708 1
2706 2709 1
2706 2710 1
2706 2717 1
2706 2720 1
2706 2721 1
2707 2708 1
2707 2717 1
2707 2720 1
2707 3322 1
2707 3323 1
2707 3334 1
2708 2709 1
2708 2710 1
2708 3310 1
2708 3322 1
2708 3323 1
2708 3326 1
2709 2710 1
2710 2720 1
2710 2721 1
2710 2724 1
2710 3323 1
2710 3326 1
2710 3338 1
2711 2712 1
2711 2713 1
2711 2715 1
2711 2727 1
2711 2728 1
2712 2713 1
2712 2715 1
2712 3316 1
2712 3328 1
2712 3330 1
2713 2714 1
2713 2715 1
2713 2716 1
2714 2715 1
2714 2716 1
2714 2728 1
2714 2731 1
2715 2716 1
2715 2727 1
2715 2728 1
2715 2731 1
2715 3328 1
2715 3330 1
2715 3331 1
2715 3345 1
2716 3319 1
2716 3330 1
2716 3331 1
2717 2718 1
2717 2719 1
2717 2720 1
2718 2719 1
2718 2720 1
2718 2721 1
2718 2723 1
2718 2732 1
2718 2735 1
2718 2736 1
2719 2720 1
2719 2732 1
2719 2735 1
2719 3334 1
2719 3335 1
2719 3349 1
2720 2721 1
2720 2723 1
2720 3323 1
2720 3334 1
2720 3335 1
2720 3338 1
2721 2722 1
2721 2723 1
2721 2724 1
2722 2723 1
2722 2724 1
2722 2736 1
2722 2739 1
2723 2724 1
2723 2735 1
2723 2736 1
2723 2739 1
2723 3335 1
2723 3338 1
2723 3339 1
2723 3353 1
2724 3338 1
2724 3339 1
2725 2726 1
2725 2727 1
2725 2728 1
2725 2730 1
2725 2740 1
2725 2743 1
2725 2744 1
2726 2727 1
2726 2740 1
2726 2743 1
2726 3342 1
2726 3357 1
2727 2728 1
2727 2730 1
2727 3328 1
2727 3342 1
2727 3345 1
2728 2729 1
2728 2730 1
2728 2731 1
2729 2730 1
2729 2731 1
2729 2744 1
2729 2747 1
2730 2731 1
2730 2743 1
2730 2744 1
2730 2747 1
2730 3342 1
2730 3345 1
2730 3346 1
2730 3361 1
2731 3331 1
2731 3345 1
2731 3346 1
2732 2733 1
2732 2734 1
2732 2735 1
2733 2734 1
2733 2735 1
2733 2736 1
2733 2738 1
2733 2748 1
2733 2751 1
2733 2752 1
2734 2735 1
2734 2748 1
2734 2751 1
2734 3349 1
2734 3350 1
2734 3365 1
2735 2736 1
2735 2738 1
2735 3335 1
2735 3349 1
2735 3350 1
2735 3353 1
2736 2737 1
2736 2738 1
2736 2739 1
2737 2738 1
2737 2739 1
2737 2752 1
2737 2755 1
2737 2756 1
2738 2739 1
2738 2751 1
2738 2752 1
2738 2755 1
2738 3350 1
2738 3353 1
2738 3354 1
2738 3369 1
2739 3339 1
2739 3353 1
2739 3354 1
2740 2741 1
2740 2742 1
2740 2743 1
2741 2742 1
2741 2743 1
2741 2744 1
2741 2746 1
2741 2760 1
2741 2763 1
2741 2764 1
2742 2743 1
2742 2759 1
2742 2760 1
2742 2763 1
2742 3357 1
2742 3358 1
2742 3377 1
2743 2744 1
2743 2746 1
2743 3342 1
2743 3357 1
2743 3358 1
2743 3361 1
2744 2745 1
2744 2746 1
2744 2747 1
2745 2746 1
2745 2747 1
2745 2764 1
2745 2767 1
2746 2747 1
2746 2763 1
2746 2764 1
2746 2767 1
2746 3358 1
2746 3361 1
2746 3362 1
2746 3381 1
2747 3346 1
2747 3361 1
2747 3362 1
2748 2749 1
2748 2750 1
2748 2751 1
2749 2750 1
2749 2751 1
2749 2752 1
2749 2754 1
2749 2768 1
2749 2771 1
2749 2772 1
2750 2751 1
2750 2768 1
2750 2771 1
2750 3365 1
2750 3366 1
2750 3385 1
2751 2752 1
2751 2754 1
2751 3350 1
2751 3365 1
2751 3366 1
2751 3369 1
2752 2753 1
2752 2754 1
2752 2755 1
2753 2754 1
2753 2755 1
2753 2756 1
2753 2757 1
2753 2772 1
2753 2775 1
2753 2776 1
2754 2755 1
2754 2771 1
2754 2772 1
2754 2775 1
2754 3366 1
2754 3369 1
2754 3370 1
2754 3389 1
2755 2756 1
2755 2757 1
2755 3354 1
2755 3369 1
2755 3370 1
2755 3373 1
2756 2757 1
2757 2775 1
2757 2776 1
2757 2779 1
2757 3370 1
2757 3373 1
2757 3393 1
2758 2759 1
2758 2760 1
2758 2762 1
2758 2782 1
2758 2785 1
2758 2786 1
2759 2760 1
2759 2762 1
2759 3375 1
2759 3377 1
2760 2761 1
2760 2762 1
2760 2763 1
2761 2762 1
2761 2763 1
2761 2764 1
2761 2766 1
2761 2786 1
2761 2789 1
2761 2790 1
2762 2763 1
2762 2785 1
2762 2786 1
2762 2789 1
2762 3375 1
2762 3377 1
2762 3378 1
2762 3403 1
2763 2764 1
2763 2766 1
2763 3358 1
2763 3377 1
2763 3378 1
2763 3381 1
2764 2765 1
2764 2766 1
2764 2767 1
2765 2766 1
2765 2767 1
2765 2790 1
2765 2793 1
2766 2767 1
2766 2789 1
2766 2790 1
2766 2793 1
2766 3378 1
2766 3381 1
2766 3382 1
2766 3407 1
2767 3362 1
2767 3381 1
2767 3382 1
2768 2769 1
2768 2770 1
2768 2771 1
2769 2770 1
2769 2771 1
2769 2772 1
2769 2774 1
2769 2794 1
2769 2797 1
2769 2798 1
2770 2771 1
2770 2794 1
2770 2797 1
2770 3385 1
2770 3386 1
2770 3411 1
2771 2772 1
2771 2774 1
2771 3366 1
2771 3385 1
2771 3386 1
2771 3389 1
2772 2773 1
2772 2774 1
2772 2775 1
2773 2774 1
2773 2775 1
2773 2776 1
2773 2778 1
2773 2798 1
2773 2801 1
2773 2802 1
2774 2775 1
2774 2797 1
2774 2798 1
2774 2801 1
2774 3386 1
2774 3389 1
2774 3390 1
2774 3415 1
2775 2776 1
2775 2778 1
2775 3370 1
2775 3389 1
2775 3390 1
2775 3393 1
2776 2777 1
2776 2778 1
2776 2779 1
2777 2778 1
2777 2779 1
2777 2780 1
2777 2802 1
2777 2805 1
2777 2806 1
2778 2779 1
2778 2801 1
2778 2802 1
2778 2805 1
2778 3390 1
2778 3393 1
2778 3394 1
2778 3419 1
2779 2780 1
2779 3393 1
2779 3394 1
2780 2805 1
2780 2806 1
2780 2809 1
2780 3394 1
2780 3423 1
2781 2782 1
2781 2784 1
2781 2814 1
2781 2815 1
2782 2783 1
2782 2784 1
2782 2785 1
2783 2784 1
2783 2785 1
2783 2786 1
2783 2788 1
2783 2815 1
2783 2818 1
2783 2819 1
2784 2785 1
2784 2814 1
2784 2815 1
2784 2818 1
2784 3398 1
2784 3399 1
2784 3400 1
2784 3432 1
2785 2786 1
2785 2788 1
2785 3375 1
2785 3399 1
2785 3400 1
2785 3403 1
2786 2787 1
2786 2788 1
2786 2789 1
2787 2788 1
2787 2789 1
2787 2790 1
2787 2792 1
2787 2819 1
2787 2822 1
2787 2823 1
2788 2789 1
2788 2818 1
2788 2819 1
2788 2822 1
2788 3400 1
2788 3403 1
2788 3404 1
2788 3436 1
2789 2790 1
2789 2792 1
2789 3378 1
2789 3403 1
2789 3404 1
2789 3407 1
2790 2791 1
2790 2792 1
2790 2793 1
2791 2792 1
2791 2793 1
2791 2823 1
2791 2826 1
2792 2793 1
2792 2822 1
2792 2823 1
2792 2826 1
2792 3404 1
2792 3407 1
2792 3408 1
2792 3440 1
2793 3382 1
2793 3407 1
2793 3408 1
2794 2795 1
2794 2796 1
2794 2797 1
2795 2796 1
2795 2797 1
2795 2798 1
2795 2800 1
2795 2827 1
2795 2830 1
2795 2831 1
2796 2797 1
2796 2827 1
2796 2830 1
2796 3411 1
2796 3412 1
2796 3444 1
2797 2798 1
2797 2800 1
2797 3386 1
2797 3411 1
2797 3412 1
2797 3415 1
2798 2799 1
2798 2800 1
2798 2801 1
2799 2800 1
2799 2801 1
2799 2802 1
2799 2804 1
2799 2831 1
2799 2834 1
2799 2835 1
2800 2801 1
2800 2830 1
2800 2831 1
2800 2834 1
2800 3412 1
2800 3415 1
2800 3416 1
2800 3448 1
2801 2802 1
2801 2804 1
2801 3390 1
2801 3415 1
2801 3416 1
2801 3419 1
2802 2803 1
2802 2804 1
2802 2805 1
2803 2804 1
2803 2805 1
2803 2806 1
2803 2808 1
2803 2835 1
2803 2838 1
2803 2839 1
2804 2805 1
2804 2834 1
2804 2835 1
2804 2838 1
2804 3416 1
2804 3419 1
2804 3420 1
2804 3452 1
2805 2806 1
2805 2808 1
2805 3394 1
2805 3419 1
2805 3420 1
2805 3423 1
2806 2807 1
2806 2808 1
2806 2809 1
2807 2808 1
2807 2809 1
2807 2810 1
2807 2839 1
2807 2842 1
2807 2843 1
2808 2809 1
2808 2838 1
2808 2839 1
2808 2842 1
2808 3420 1
2808 3423 1
2808 3424 1
2808 3456 1
2809 2810 1
2809 3423 1
2809 3424 1
2810 2842 1
2810 2843 1
2810 2846 1
2810 3424 1
2810 3460 1
2811 2813 1
2811 2851 1
2811 2854 1
2811 2855 1
2812 2813 1
2812 2814 1
2812 2815 1
2812 2817 1
2812 2855 1
2812 2858 1
2812 2859 1
2813 2814 1
2813 2854 1
2813 2855 1
2813 2858 1
2813 3428 1
2813 3429 1
2813 3472 1
2814 2815 1
2814 2817 1
2814 3398 1
2814 3429 1
2814 3432 1
2815 2816 1
2815 2817 1
2815 2818 1
2816 2817 1
2816 2818 1
2816 2819 1
2816 2821 1
2816 2859 1
2816 2862 1
2816 2863 1
2817 2818 1
2817 2858 1
2817 2859 1
2817 2862 1
2817 3429 1
2817 3432 1
2817 3433 1
2817 3476 1
2818 2819 1
2818 2821 1
2818 3400 1
2818 3432 1
2818 3433 1
2818 3436 1
2819 2820 1
2819 2821 1
2819 2822 1
2820 2821 1
2820 2822 1
2820 2823 1
2820 2825 1
2820 2863 1
2820 2866 1
2820 2867 1
2821 2822 1
2821 2862 1
2821 2863 1
2821 2866 1
2821 3433 1
2821 3436 1
2821 3437 1
2821 3480 1
2822 2823 1
2822 2825 1
2822 3404 1
2822 3436 1
2822 3437 1
2822 3440 1
2823 2824 1
2823 2825 1
2823 2826 1
2824 2825 1
2824 2826 1
2824 2867 1
2824 2870 1
2825 2826 1
2825 2866 1
2825 2867 1
2825 2870 1
2825 3437 1
2825 3440 1
2825 3441 1
2825 3484 1
2826 3408 1
2826 3440 1
2826 3441 1
2827 2828 1
2827 2829 1
2827 2830 1
2828 2829 1
2828 2830 1
2828 2831 1
2828 2833 1
2828 2871 1
2828 2874 1
2828 2875 1
2829 2830 1
2829 2871 1
2829 2874 1
2829 3444 1
2829 3445 1
2829 3488 1
2830 2831 1
2830 2833 1
2830 3412 1
2830 3444 1
2830 3445 1
2830 3448 1
2831 2832 1
2831 2833 1
2831 2834 1
2832 2833 1
2832 2834 1
2832 2835 1
2832 2837 1
2832 2875 1
2832 2878 1
2832 2879 1
2833 2834 1
2833 2874 1
2833 2875 1
2833 2878 1
2833 3445 1
2833 3448 1
2833 3449 1
2833 3492 1
2834 2835 1
2834 2837 1
2834 3416 1
2834 3448 1
2834 3449 1
2834 3452 1
2835 2836 1
2835 2837 1
2835 2838 1
2836 2837 1
2836 2838 1
2836 2839 1
2836 2841 1
2836 2879 1
2836 2882 1
2836 2883 1
2837 2838 1
2837 2878 1
2837 2879 1
2837 2882 1
2837 3449 1
2837 3452 1
2837 3453 1
2837 3496 1
2838 2839 1
2838 2841 1
2838 3420 1
2838 3452 1
2838 3453 1
2838 3456 1
2839 2840 1
2839 2841 1
2839 2842 1
2840 2841 1
2840 2842 1
2840 2843 1
2840 2845 1
2840 2883 1
2840 2886 1
2840 2887 1
2841 2842 1
2841 2882 1
2841 2883 1
2841 2886 1
2841 3453 1
2841 3456 1
2841 3457 1
2841 3500 1
2842 2843 1
2842 2845 1
2842 3424 1
2842 3456 1
2842 3457 1
2842 3460 1
2843 2844 1
2843 2845 1
2843 2846 1
2844 2845 1
2844 2846 1
2844 2848 1
2844 2887 1
2844 2890 1
2844 2891 1
2845 2846 1
2845 2886 1
2845 2887 1
2845 2890 1
2845 3457 1
2845 3460 1
2845 3461 1
2845 3504 1
2846 2848 1
2846 3460 1
2846 3461 1
2847 2848 1
2847 2891 1
2847 2894 1
2847 2895 1
2848 2890 1
2848 2891 1
2848 2894 1
2848 3461 1
2848 3464 1
2848 3508 1
2849 2850 1
2849 2851 1
2849 2853 1
2849 2913 1
2849 2916 1
2849 2917 1
2850 2912 1
2850 2913 1
2850 2916 1
2850 3466 1
2850 3530 1
2851 2852 1
2851 2853 1
2851 2854 1
2852 2853 1
2852 2854 1
2852 2855 1
2852 2857 1
2852 2917 1
2852 2920 1
2852 2921 1
2853 2854 1
2853 2916 1
2853 2917 1
2853 2920 1
2853 3466 1
2853 3468 1
2853 3469 1
2853 3534 1
2854 2855 1
2854 2857 1
2854 3428 1
2854 3468 1
2854 3469 1
2854 3472 1
2855 2856 1
2855 2857 1
2855 2858 1
2856 2857 1
2856 2858 1
2856 2859 1
2856 2861 1
2856 2921 1
2856 2924 1
2856 2925 1
2857 2858 1
2857 2920 1
2857 2921 1
2857 2924 1
2857 3469 1
2857 3472 1
2857 3473 1
2857 3538 1
2858 2859 1
2858 2861 1
2858 3429 1
2858 3472 1
2858 3473 1
2858 3476 1
2859 2860 1
2859 2861 1
2859 2862 1
2860 2861 1
2860 2862 1
2860 2863 1
2860 2865 1
2860 2925 1
2860 2928 1
2860 2929 1
2861 2862 1
2861 2924 1
2861 2925 1
2861 2928 1
2861 3473 1
2861 3476 1
2861 3477 1
2861 3542 1
2862 2863 1
2862 2865 1
2862 3433 1
2862 3476 1
2862 3477 1
2862 3480 1
2863 2864 1
2863 2865 1
2863 2866 1
2864 2865 1
2864 2866 1
2864 2867 1
2864 2869 1
2864 2929 1
2864 2932 1
2864 2933 1
2865 2866 1
2865 2928 1
2865 2929 1
2865 2932 1
2865 3477 1
2865 3480 1
2865 3481 1
2865 3546 1
2866 2867 1
2866 2869 1
2866 3437 1
2866 3480 1
2866 3481 1
2866 3484 1
2867 2868 1
2867 2869 1
2867 2870 1
2868 2869 1
2868 2870 1
2868 2933 1
2868 2936 1
2869 2870 1
2869 2932 1
2869 2933 1
2869 2936 1
2869 3481 1
2869 3484 1
2869 3485 1
2869 3550 1
2870 3441 1
2870 3484 1
2870 3485 1
2871 2872 1
2871 2873 1
2871 2874 1
2872 2873 1
2872 2874 1
2872 2875 1
2872 2877 1
2872 2937 1
2872 2940 1
2872 2941 1
2873 2874 1
2873 2937 1
2873 2940 1
2873 3488 1
2873 3489 1
2873 3554 1
2874 2875 1
2874 2877 1
2874 3445 1
2874 3488 1
2874 3489 1
2874 3492 1
2875 2876 1
2875 2877 1
2875 2878 1
2876 2877 1
2876 2878 1
2876 2879 1
2876 2881 1
2876 2941 1
2876 2944 1
2876 2945 1
2877 2878 1
2877 2940 1
2877 2941 1
2877 2944 1
2877 3489 1
2877 3492 1
2877 3493 1
2877 3558 1
2878 2879 1
2878 2881 1
2878 3449 1
2878 3492 1
2878 3493 1
2878 3496 1
2879 2880 1
2879 2881 1
2879 2882 1
2880 2881 1
2880 2882 1
2880 2883 1
2880 2885 1
2880 2945 1
2880 2948 1
2880 2949 1
2881 2882 1
2881 2944 1
2881 2945 1
2881 2948 1
2881 3493 1
2881 3496 1
2881 3497 1
2881 3562 1
2882 2883 1
2882 2885 1
2882 3453 1
2882 3496 1
2882 3497 1
2882 3500 1
2883 2884 1
2883 2885 1
2883 2886 1
2884 2885 1
2884 2886 1
2884 2887 1
2884 2889 1
2884 2949 1
2884 2952 1
2884 2953 1
2885 2886 1
2885 2948 1
2885 2949 1
2885 2952 1
2885 3497 1
2885 3500 1
2885 3501 1
2885 3566 1
2886 2887 1
2886 2889 1
2886 3457 1
2886 3500 1
2886 3501 1
2886 3504 1
2887 2888 1
2887 2889 1
2887 2890 1
2888 2889 1
2888 2890 1
2888 2891 1
2888 2893 1
2888 2953 1
2888 2956 1
2888 2957 1
2889 2890 1
2889 2952 1
2889 2953 1
2889 2956 1
2889 3501 1
2889 3504 1
2889 3505 1
2889 3570 1
2890 2891 1
2890 2893 1
2890 3461 1
2890 3504 1
2890 3505 1
2890 3508 1
2891 2892 1
2891 2893 1
2891 2894 1
2892 2893 1
2892 2894 1
2892 2895 1
2892 2897 1
2892 2957 1
2892 2960 1
2892 2961 1
2893 2894 1
2893 2956 1
2893 2957 1
2893 2960 1
2893 3505 1
2893 3508 1
2893 3509 1
2893 3574 1
2894 2895 1
2894 2897 1
2894 3464 1
2894 3508 1
2894 3509 1
2894 3512 1
2895 2896 1
2895 2897 1
2895 2898 1
2896 2897 1
2896 2898 1
2896 2899 1
2896 2901 1
2896 2961 1
2896 2964 1
2896 2965 1
2897 2898 1
2897 2960 1
2897 2961 1
2897 2964 1
2897 3509 1
2897 3512 1
2897 3513 1
2897 3578 1
2898 2899 1
2898 2901 1
2898 3512 1
2898 3513 1
2898 3516 1
2899 2900 1
2899 2901 1
2900 2901 1
2900 2903 1
2900 2965 1
2900 2968 1
2900 2969 1
2901 2964 1
2901 2965 1
2901 2968 1
2901 3513 1
2901 3516 1
2901 3517 1
2901 3582 1
2902 2903 1
2902 2905 1
2902 2969 1
2902 2972 1
2902 2973 1
2903 2968 1
2903 2969 1
2903 2972 1
2903 3517 1
2903 3519 1
2903 3586 1
2904 2905 1
2904 2907 1
2904 2973 1
2904 2976 1
2904 2977 1
2905 2972 1
2905 2973 1
2905 2976 1
2905 3519 1
2905 3521 1
2905 3590 1
2906 2907 1
2906 2908 1
2906 2909 1
2906 2911 1
2906 2977 1
2906 2980 1
2906 2981 1
2907 2908 1
2907 2976 1
2907 2977 1
2907 2980 1
2907 3521 1
2907 3523 1
2907 3594 1
2908 2909 1
2908 2911 1
2908 3523 1
2908 3526 1
2909 2910 1
2909 2911 1
2909 2912 1
2910 2911 1
2910 2912 1
2910 2913 1
2910 2915 1
2910 2981 1
2910 2984 1
2910 2985 1
2911 2912 1
2911 2980 1
2911 2981 1
2911 2984 1
2911 3523 1
2911 3526 1
2911 3527 1
2911 3598 1
2912 2913 1
2912 2915 1
2912 3526 1
2912 3527 1
2912 3530 1
2913 2914 1
2913 2915 1
2913 2916 1
2914 2915 1
2914 2916 1
2914 2917 1
2914 2919 1
2914 2985 1
2914 2988 1
2914 2989 1
2915 2916 1
2915 2984 1
2915 2985 1
2915 2988 1
2915 3527 1
2915 3530 1
2915 3531 1
2915 3602 1
2916 2917 1
2916 2919 1
2916 3466 1
2916 3530 1
2916 3531 1
2916 3534 1
2917 2918 1
2917 2919 1
2917 2920 1
2918 2919 1
2918 2920 1
2918 2921 1
2918 2923 1
2918 2989 1
2918 2992 1
2918 2993 1
2919 2920 1
2919 2988 1
2919 2989 1
2919 2992 1
2919 3531 1
2919 3534 1
2919 3535 1
2919 3606 1
2920 2921 1
2920 2923 1
2920 3469 1
2920 3534 1
2920 3535 1
2920 3538 1
2921 2922 1
2921 2923 1
2921 2924 1
2922 2923 1
2922 2924 1
2922 2925 1
2922 2927 1
2922 2993 1
2922 2996 1
2922 2997 1
2923 2924 1
2923 2992 1
2923 2993 1
2923 2996 1
2923 3535 1
2923 3538 1
2923 3539 1
2923 3610 1
2924 2925 1
2924 2927 1
2924 3473 1
2924 3538 1
2924 3539 1
2924 3542 1
2925 2926 1
2925 2927 1
2925 2928 1
2926 2927 1
2926 2928 1
2926 2929 1
2926 2931 1
2926 2997 1
2926 3000 1
2926 3001 1
2927 2928 1
2927 2996 1
2927 2997 1
2927 3000 1
2927 3539 1
2927 3542 1
2927 3543 1
2927 3614 1
2928 2929 1
2928 2931 1
2928 3477 1
2928 3542 1
2928 3543 1
2928 3546 1
2929 2930 1
2929 2931 1
2929 2932 1
2930 2931 1
2930 2932 1
2930 2933 1
2930 2935 1
2930 3001 1
2930 3004 1
2930 3005 1
2931 2932 1
2931 3000 1
2931 3001 1
2931 3004 1
2931 3543 1
2931 3546 1
2931 3547 1
2931 3618 1
2932 2933 1
2932 2935 1
2932 3481 1
2932 3546 1
2932 3547 1
2932 3550 1
2933 2934 1
2933 2935 1
2933 2936 1
2934 2935 1
2934 2936 1
2934 3005 1
2934 3008 1
2935 2936 1
2935 3004 1
2935 3005 1
2935 3008 1
2935 3547 1
2935 3550 1
2935 3551 1
2935 3622 1
2936 3485 1
2936 3550 1
2936 3551 1
2937 2938 1
2937 2939 1
2937 2940 1
2938 2939 1
2938 2940 1
2938 2941 1
2938 2943 1
2939 2940 1
2939 3554 1
2939 3555 1
2940 2941 1
2940 2943 1
2940 3489 1
2940 3554 1
2940 3555 1
2940 3558 1
2941 2942 1
2941 2943 1
2941 2944 1
2942 2943 1
2942 2944 1
2942 2945 1
2942 2947 1
2943 2944 1
2943 3555 1
2943 3558 1
2943 3559 1
2944 2945 1
2944 2947 1
2944 3493 1
2944 3558 1
2944 3559 1
2944 3562 1
2945 2946 1
2945 2947 1
2945 2948 1
2946 2947 1
2946 2948 1
2946 2949 1
2946 2951 1
2947 2948 1
2947 3559 1
2947 3562 1
2947 3563 1
2948 2949 1
2948 2951 1
2948 3497 1
2948 3562 1
2948 3563 1
2948 3566 1
2949 2950 1
2949 2951 1
2949 2952 1
2950 2951 1
2950 2952 1
2950 2953 1
2950 2955 1
2951 2952 1
2951 3563 1
2951 3566 1
2951 3567 1
2952 2953 1
2952 2955 1
2952 3501 1
2952 3566 1
2952 3567 1
2952 3570 1
2953 2954 1
2953 2955 1
2953 2956 1
2954 2955 1
2954 2956 1
2954 2957 1
2954 2959 1
2955 2956 1
2955 3567 1
2955 3570 1
2955 3571 1
2956 2957 1
2956 2959 1
2956 3505 1
2956 3570 1
2956 3571 1
2956 3574 1
2957 2958 1
2957 2959 1
2957 2960 1
2958 2959 1
2958 2960 1
2958 2961 1
2958 2963 1
2959 2960 1
2959 3571 1
2959 3574 1
2959 3575 1
2960 2961 1
2960 2963 1
2960 3509 1
2960 3574 1
2960 3575 1
2960 3578 1
2961 2962 1
2961 2963 1
2961 2964 1
2962 2963 1
2962 2964 1
2962 2965 1
2962 2967 1
2963 2964 1
2963 3575 1
2963 3578 1
2963 3579 1
2964 2965 1
2964 2967 1
2964 3513 1
2964 3578 1
2964 3579 1
2964 3582 1
2965 2966 1
2965 2967 1
2965 2968 1
2966 2967 1
2966 2968 1
2966 2969 1
2966 2971 1
2967 2968 1
2967 3579 1
2967 3582 1
2967 3583 1
2968 2969 1
2968 2971 1
2968 3517 1
2968 3582 1
2968 3583 1
2968 3586 1
2969 2970 1
2969 2971 1
2969 2972 1
2970 2971 1
2970 2972 1
2970 2973 1
2970 2975 1
2971 2972 1
2971 3583 1
2971 3586 1
2971 3587 1
2972 2973 1
2972 2975 1
2972 3519 1
2972 3586 1
2972 3587 1
2972 3590 1
2973 2974 1
2973 2975 1
2973 2976 1
2974 2975 1
2974 2976 1
2974 2977 1
2974 2979 1
2975 2976 1
2975 3587 1
2975 3590 1
2975 3591 1
2976 2977 1
2976 2979 1
2976 3521 1
2976 3590 1
2976 3591 1
2976 3594 1
2977 2978 1
2977 2979 1
2977 2980 1
2978 2979 1
2978 2980 1
2978 2981 1
2978 2983 1
2979 2980 1
2979 3591 1
2979 3594 1
2979 3595 1
2980 2981 1
2980 2983 1
2980 3523 1
2980 3594 1
2980 3595 1
2980 3598 1
2981 2982 1
2981 2983 1
2981 2984 1
2982 2983 1
2982 2984 1
2982 2985 1
2982 2987 1
2983 2984 1
2983 3595 1
2983 3598 1
2983 3599 1
2984 2985 1
2984 2987 1
2984 3527 1
2984 3598 1
2984 3599 1
2984 3602 1
2985 2986 1
2985 2987 1
2985 2988 1
2986 2987 1
2986 2988 1
2986 2989 1
2986 2991 1
2987 2988 1
2987 3599 1
2987 3602 1
2987 3603 1
2988 2989 1
2988 2991 1
2988 3531 1
2988 3602 1
2988 3603 1
2988 3606 1
2989 2990 1
2989 2991 1
2989 2992 1
2990 2991 1
2990 2992 1
2990 2993 1
2990 2995 1
2991 2992 1
2991 3603 1
2991 3606 1
2991 3607 1
2992 2993 1
2992 2995 1
2992 3535 1
2992 3606 1
2992 3607 1
2992 3610 1
2993 2994 1
2993 2995 1
2993 2996 1
2994 2995 1
2994 2996 1
2994 2997 1
2994 2999 1
2995 2996 1
2995 3607 1
2995 3610 1
2995 3611 1
2996 2997 1
2996 2999 1
2996 3539 1
2996 3610 1
2996 3611 1
2996 3614 1
2997 2998 1
2997 2999 1
2997 3000 1
2998 2999 1
2998 3000 1
2998 3001 1
2998 3003 1
2999 3000 1
2999 3611 1
2999 3614 1
2999 3615 1
3000 3001 1
3000 3003 1
3000 3543 1
3000 3614 1
3000 3615 1
3000 3618 1
3001 3002 1
3001 3003 1
3001 3004 1
3002 3003 1
3002 3004 1
3002 3005 1
3002 3007 1
3003 3004 1
3003 3615 1
3003 3618 1
3003 3619 1
3004 3005 1
3004 3007 1
3004 3547 1
3004 3618 1
3004 3619 1
3004 3622 1
3005 3006 1
3005 3007 1
3005 3008 1
3006 3007 1
3006 3008 1
3007 3008 1
3007 3619 1
3007 3622 1
3007 3623 1
3008 3551 1
3008 3622 1
3008 3623 1
3009 3010 1
3009 3011 1
3009 3012 1
3010 3011 1
3010 3012 1
3010 3013 1
3010 3015 1
3010 3081 1
3010 3084 1
3010 3085 1
3011 3012 1
3011 3081 1
3011 3084 1
3011 3626 1
3011 3627 1
3011 3698 1
3012 3013 1
3012 3015 1
3012 3626 1
3012 3627 1
3012 3630 1
3013 3014 1
3013 3015 1
3013 3016 1
3014 3015 1
3014 3016 1
3014 3017 1
3014 3019 1
3014 3085 1
3014 3088 1
3014 3089 1
3015 3016 1
3015 3084 1
3015 3085 1
3015 3088 1
3015 3627 1
3015 3630 1
3015 3631 1
3015 3702 1
3016 3017 1
3016 3019 1
3016 3630 1
3016 3631 1
3016 3634 1
3017 3018 1
3017 3019 1
3017 3020 1
3018 3019 1
3018 3020 1
3018 3021 1
3018 3023 1
3018 3089 1
3018 3092 1
3018 3093 1
3019 3020 1
3019 3088 1
3019 3089 1
3019 3092 1
3019 3631 1
3019 3634 1
3019 3635 1
3019 3706 1
3020 3021 1
3020 3023 1
3020 3634 1
3020 3635 1
3020 3638 1
3021 3022 1
3021 3023 1
3021 3024 1
3022 3023 1
3022 3024 1
3022 3025 1
3022 3027 1
3022 3093 1
3022 3096 1
3022 3097 1
3023 3024 1
3023 3092 1
3023 3093 1
3023 3096 1
3023 3635 1
3023 3638 1
3023 3639 1
3023 3710 1
3024 3025 1
3024 3027 1
3024 3638 1
3024 3639 1
3024 3642 1
3025 3026 1
3025 3027 1
3025 3028 1
3026 3027 1
3026 3028 1
3026 3029 1
3026 3031 1
3026 3097 1
3026 3100 1
3026 3101 1
3027 3028 1
3027 3096 1
3027 3097 1
3027 3100 1
3027 3639 1
3027 3642 1
3027 3643 1
3027 3714 1
3028 3029 1
3028 3031 1
3028 3642 1
3028 3643 1
3028 3646 1
3029 3030 1
3029 3031 1
3029 3032 1
3030 3031 1
3030 3032 1
3030 3033 1
3030 3035 1
3030 3101 1
3030 3104 1
3030 3105 1
3031 3032 1
3031 3100 1
3031 3101 1
3031 3104 1
3031 3643 1
3031 3646 1
3031 3647 1
3031 3718 1
3032 3033 1
3032 3035 1
3032 3646 1
3032 3647 1
3032 3650 1
3033 3034 1
3033 3035 1
3033 3036 1
3034 3035 1
3034 3036 1
3034 3037 1
3034 3039 1
3034 3105 1
3034 3108 1
3034 3109 1
3035 3036 1
3035 3104 1
3035 3105 1
3035 3108 1
3035 3647 1
3035 3650 1
3035 3651 1
3035 3722 1
3036 3037 1
3036 3039 1
3036 3650 1
3036 3651 1
3036 3654 1
3037 3038 1
3037 3039 1
3037 3040 1
3038 3039 1
3038 3040 1
3038 3041 1
3038 3043 1
3038 3109 1
3038 3112 1
3038 3113 1
3039 3040 1
3039 3108 1
3039 3109 1
3039 3112 1
3039 3651 1
3039 3654 1
3039 3655 1
3039 3726 1
3040 3041 1
3040 3043 1
3040 3654 1
3040 3655 1
3040 3658 1
3041 3042 1
3041 3043 1
3041 3044 1
3042 3043 1
3042 3044 1
3042 3045 1
3042 3047 1
3042 3113 1
3042 3115 1
3042 3116 1
3043 3044 1
3043 3112 1
3043 3113 1
3043 3115 1
3043 3655 1
3043 3658 1
3043 3659 1
3043 3730 1
3044 3045 1
3044 3047 1
3044 3658 1
3044 3659 1
3044 3662 1
3045 3046 1
3045 3047 1
3045 3048 1
3046 3047 1
3046 3048 1
3046 3049 1
3046 3051 1
3046 3116 1
3046 3117 1
3046 3118 1
3047 3048 1
3047 3115 1
3047 3116 1
3047 3117 1
3047 3659 1
3047 3662 1
3047 3663 1
3047 3733 1
3048 3049 1
3048 3051 1
3048 3662 1
3048 3663 1
3048 3666 1
3049 3050 1
3049 3051 1
3049 3052 1
3050 3051 1
3050 3052 1
3050 3053 1
3050 3055 1
3050 3118 1
3050 3121 1
3050 3122 1
3051 3052 1
3051 3117 1
3051 3118 1
3051 3121 1
3051 3663 1
3051 3666 1
3051 3667 1
3051 3735 1
3052 3053 1
3052 3055 1
3052 3666 1
3052 3667 1
3052 3670 1
3053 3054 1
3053 3055 1
3053 3056 1
3054 3055 1
3054 3056 1
3054 3057 1
3054 3059 1
3054 3122 1
3054 3125 1
3054 3126 1
3055 3056 1
3055 3121 1
3055 3122 1
3055 3125 1
3055 3667 1
3055 3670 1
3055 3671 1
3055 3739 1
3056 3057 1
3056 3059 1
3056 3670 1
3056 3671 1
3056 3674 1
3057 3058 1
3057 3059 1
3057 3060 1
3058 3059 1
3058 3060 1
3058 3061 1
3058 3063 1
3058 3126 1
3058 3129 1
3058 3130 1
3059 3060 1
3059 3125 1
3059 3126 1
3059 3129 1
3059 3671 1
3059 3674 1
3059 3675 1
3059 3743 1
3060 3061 1
3060 3063 1
3060 3674 1
3060 3675 1
3060 3678 1
3061 3062 1
3061 3063 1
3061 3064 1
3062 3063 1
3062 3064 1
3062 3065 1
3062 3067 1
3062 3130 1
3062 3133 1
3062 3134 1
3063 3064 1
3063 3129 1
3063 3130 1
3063 3133 1
3063 3675 1
3063 3678 1
3063 3679 1
3063 3747 1
3064 3065 1
3064 3067 1
3064 3678 1
3064 3679 1
3064 3682 1
3065 3066 1
3065 3067 1
3065 3068 1
3066 3067 1
3066 3068 1
3066 3069 1
3066 3071 1
3066 3134 1
3066 3137 1
3066 3138 1
3067 3068 1
3067 3133 1
3067 3134 1
3067 3137 1
3067 3679 1
3067 3682 1
3067 3683 1
3067 3751 1
3068 3069 1
3068 3071 1
3068 3682 1
3068 3683 1
3068 3686 1
3069 3070 1
3069 3071 1
3069 3072 1
3070 3071 1
3070 3072 1
3070 3073 1
3070 3075 1
3070 3138 1
3070 3141 1
3070 3142 1
3071 3072 1
3071 3137 1
3071 3138 1
3071 3141 1
3071 3683 1
3071 3686 1
3071 3687 1
3071 3755 1
3072 3073 1
3072 3075 1
3072 3686 1
3072 3687 1
3072 3690 1
3073 3074 1
3073 3075 1
3073 3076 1
3074 3075 1
3074 3076 1
3074 3077 1
3074 3079 1
3074 3142 1
3074 3145 1
3074 3146 1
3075 3076 1
3075 3141 1
3075 3142 1
3075 3145 1
3075 3687 1
3075 3690 1
3075 3691 1
3075 3759 1
3076 3077 1
3076 3079 1
3076 3690 1
3076 3691 1
3076 3694 1
3077 3078 1
3077 3079 1
3077 3080 1
3078 3079 1
3078 3080 1
3078 3146 1
3078 3149 1
3079 3080 1
3079 3145 1
3079 3146 1
3079 3149 1
3079 3691 1
3079 3694 1
3079 3695 1
3079 3763 1
3080 3694 1
3080 3695 1
3081 3082 1
3081 3083 1
3081 3084 1
3082 3083 1
3082 3084 1
3082 3085 1
3082 3087 1
3082 3150 1
3082 3153 1
3082 3154 1
3083 3084 1
3083 3150 1
3083 3153 1
3083 3698 1
3083 3699 1
3083 3767 1
3084 3085 1
3084 3087 1
3084 3627 1
3084 3698 1
3084 3699 1
3084 3702 1
3085 3086 1
3085 3087 1
3085 3088 1
3086 3087 1
3086 3088 1
3086 3089 1
3086 3091 1
3086 3154 1
3086 3157 1
3086 3158 1
3087 3088 1
3087 3153 1
3087 3154 1
3087 3157 1
3087 3699 1
3087 3702 1
3087 3703 1
3087 3771 1
3088 3089 1
3088 3091 1
3088 3631 1
3088 3702 1
3088 3703 1
3088 3706 1
3089 3090 1
3089 3091 1
3089 3092 1
3090 3091 1
3090 3092 1
3090 3093 1
3090 3095 1
3090 3158 1
3090 3161 1
3090 3162 1
3091 3092 1
3091 3157 1
3091 3158 1
3091 3161 1
3091 3703 1
3091 3706 1
3091 3707 1
3091 3775 1
3092 3093 1
3092 3095 1
3092 3635 1
3092 3706 1
3092 3707 1
3092 3710 1
3093 3094 1
3093 3095 1
3093 3096 1
3094 3095 1
3094 3096 1
3094 3097 1
3094 3099 1
3094 3162 1
3094 3165 1
3094 3166 1
3095 3096 1
3095 3161 1
3095 3162 1
3095 3165 1
3095 3707 1
3095 3710 1
3095 3711 1
3095 3779 1
3096 3097 1
3096 3099 1
3096 3639 1
3096 3710 1
3096 3711 1
3096 3714 1
3097 3098 1
3097 3099 1
3097 3100 1
3098 3099 1
3098 3100 1
3098 3101 1
3098 3103 1
3098 3166 1
3098 3169 1
3098 3170 1
3099 3100 1
3099 3165 1
3099 3166 1
3099 3169 1
3099 3711 1
3099 3714 1
3099 3715 1
3099 3783 1
3100 3101 1
3100 3103 1
3100 3643 1
3100 3714 1
3100 3715 1
3100 3718 1
3101 3102 1
3101 3103 1
3101 3104 1
3102 3103 1
3102 3104 1
3102 3105 1
3102 3107 1
3102 3170 1
3102 3172 1
3102 3173 1
3103 3104 1
3103 3169 1
3103 3170 1
3103 3172 1
3103 3715 1
3103 3718 1
3103 3719 1
3103 3787 1
3104 3105 1
3104 3107 1
3104 3647 1
3104 3718 1
3104 3719 1
3104 3722 1
3105 3106 1
3105 3107 1
3105 3108 1
3106 3107 1
3106 3108 1
3106 3109 1
3106 3111 1
3106 3173 1
3107 3108 1
3107 3172 1
3107 3173 1
3107 3719 1
3107 3722 1
3107 3723 1
3107 3790 1
3108 3109 1
3108 3111 1
3108 3651 1
3108 3722 1
3108 3723 1
3108 3726 1
3109 3110 1
3109 3111 1
3109 3112 1
3110 3111 1
3110 3112 1
3110 3113 1
3110 3114 1
3111 3112 1
3111 3723 1
3111 3726 1
3111 3727 1
3112 3113 1
3112 3114 1
3112 3655 1
3112 3726 1
3112 3727 1
3112 3730 1
3113 3114 1
3113 3115 1
3114 3115 1
3114 3727 1
3114 3730 1
3115 3116 1
3115 3659 1
3115 3730 1
3115 3733 1
3116 3117 1
3117 3118 1
3117 3120 1
3117 3663 1
3117 3733 1
3117 3735 1
3118 3119 1
3118 3120 1
3118 3121 1
3119 3120 1
3119 3121 1
3119 3122 1
3119 3124 1
3120 3121 1
3120 3735 1
3120 3736 1
3121 3122 1
3121 3124 1
3121 3667 1
3121 3735 1
3121 3736 1
3121 3739 1
3122 3123 1
3122 3124 1
3122 3125 1
3123 3124 1
3123 3125 1
3123 3126 1
3123 3128 1
3123 3174 1
3124 3125 1
3124 3736 1
3124 3739 1
3124 3740 1
3125 3126 1
3125 3128 1
3125 3671 1
3125 3739 1
3125 3740 1
3125 3743 1
3126 3127 1
3126 3128 1
3126 3129 1
3127 3128 1
3127 3129 1
3127 3130 1
3127 3132 1
3127 3174 1
3127 3175 1
3127 3176 1
3128 3129 1
3128 3174 1
3128 3175 1
3128 3740 1
3128 3743 1
3128 3744 1
3128 3791 1
3129 3130 1
3129 3132 1
3129 3675 1
3129 3743 1
3129 3744 1
3129 3747 1
3130 3131 1
3130 3132 1
3130 3133 1
3131 3132 1
3131 3133 1
3131 3134 1
3131 3136 1
3131 3176 1
3131 3179 1
3131 3180 1
3132 3133 1
3132 3175 1
3132 3176 1
3132 3179 1
3132 3744 1
3132 3747 1
3132 3748 1
3132 3793 1
3133 3134 1
3133 3136 1
3133 3679 1
3133 3747 1
3133 3748 1
3133 3751 1
3134 3135 1
3134 3136 1
3134 3137 1
3135 3136 1
3135 3137 1
3135 3138 1
3135 3140 1
3135 3180 1
3135 3183 1
3135 3184 1
3136 3137 1
3136 3179 1
3136 3180 1
3136 3183 1
3136 3748 1
3136 3751 1
3136 3752 1
3136 3797 1
3137 3138 1
3137 3140 1
3137 3683 1
3137 3751 1
3137 3752 1
3137 3755 1
3138 3139 1
3138 3140 1
3138 3141 1
3139 3140 1
3139 3141 1
3139 3142 1
3139 3144 1
3139 3184 1
3139 3187 1
3139 3188 1
3140 3141 1
3140 3183 1
3140 3184 1
3140 3187 1
3140 3752 1
3140 3755 1
3140 3756 1
3140 3801 1
3141 3142 1
3141 3144 1
3141 3687 1
3141 3755 1
3141 3756 1
3141 3759 1
3142 3143 1
3142 3144 1
3142 3145 1
3143 3144 1
3143 3145 1
3143 3146 1
3143 3148 1
3143 3188 1
3143 3191 1
3143 3192 1
3144 3145 1
3144 3187 1
3144 3188 1
3144 3191 1
3144 3756 1
3144 3759 1
3144 3760 1
3144 3805 1
3145 3146 1
3145 3148 1
3145 3691 1
3145 3759 1
3145 3760 1
3145 3763 1
3146 3147 1
3146 3148 1
3146 3149 1
3147 3148 1
3147 3149 1
3147 3192 1
3147 3195 1
3148 3149 1
3148 3191 1
3148 3192 1
3148 3195 1
3148 3760 1
3148 3763 1
3148 3764 1
3148 3809 1
3149 3695 1
3149 3763 1
3149 3764 1
3150 3151 1
3150 3152 1
3150 3153 1
3151 3152 1
3151 3153 1
3151 3154 1
3151 3156 1
3151 3196 1
3151 3199 1
3151 3200 1
3152 3153 1
3152 3196 1
3152 3199 1
3152 3767 1
3152 3768 1
3152 3813 1
3153 3154 1
3153 3156 1
3153 3699 1
3153 3767 1
3153 3768 1
3153 3771 1
3154 3155 1
3154 3156 1
3154 3157 1
3155 3156 1
3155 3157 1
3155 3158 1
3155 3160 1
3155 3200 1
3155 3203 1
3155 3204 1
3156 3157 1
3156 3199 1
3156 3200 1
3156 3203 1
3156 3768 1
3156 3771 1
3156 3772 1
3156 3817 1
3157 3158 1
3157 3160 1
3157 3703 1
3157 3771 1
3157 3772 1
3157 3775 1
3158 3159 1
3158 3160 1
3158 3161 1
3159 3160 1
3159 3161 1
3159 3162 1
3159 3164 1
3159 3204 1
3159 3207 1
3159 3208 1
3160 3161 1
3160 3203 1
3160 3204 1
3160 3207 1
3160 3772 1
3160 3775 1
3160 3776 1
3160 3821 1
3161 3162 1
3161 3164 1
3161 3707 1
3161 3775 1
3161 3776 1
3161 3779 1
3162 3163 1
3162 3164 1
3162 3165 1
3163 3164 1
3163 3165 1
3163 3166 1
3163 3168 1
3163 3208 1
3163 3211 1
3163 3212 1
3164 3165 1
3164 3207 1
3164 3208 1
3164 3211 1
3164 3776 1
3164 3779 1
3164 3780 1
3164 3825 1
3165 3166 1
3165 3168 1
3165 3711 1
3165 3779 1
3165 3780 1
3165 3783 1
3166 3167 1
3166 3168 1
3166 3169 1
3167 3168 1
3167 3169 1
3167 3170 1
3167 3171 1
3167 3212 1
3168 3169 1
3168 3211 1
3168 3212 1
3168 3780 1
3168 3783 1
3168 3784 1
3168 3829 1
3169 3170 1
3169 3171 1
3169 3715 1
3169 3783 1
3169 3784 1
3169 3787 1
3170 3171 1
3170 3172 1
3171 3172 1
3171 3784 1
3171 3787 1
3172 3173 1
3172 3719 1
3172 3787 1
3172 3790 1
3174 3175 1
3175 3176 1
3175 3178 1
3175 3744 1
3175 3791 1
3175 3793 1
3176 3177 1
3176 3178 1
3176 3179 1
3177 3178 1
3177 3179 1
3177 3180 1
3177 3182 1
3177 3213 1
3177 3214 1
3178 3179 1
3178 3213 1
3178 3793 1
3178 3794 1
3179 3180 1
3179 3182 1
3179 3748 1
3179 3793 1
3179 3794 1
3179 3797 1
3180 3181 1
3180 3182 1
3180 3183 1
3181 3182 1
3181 3183 1
3181 3184 1
3181 3186 1
3181 3214 1
3181 3217 1
3181 3218 1
3182 3183 1
3182 3213 1
3182 3214 1
3182 3217 1
3182 3794 1
3182 3797 1
3182 3798 1
3182 3831 1
3183 3184 1
3183 3186 1
3183 3752 1
3183 3797 1
3183 3798 1
3183 3801 1
3184 3185 1
3184 3186 1
3184 3187 1
3185 3186 1
3185 3187 1
3185 3188 1
3185 3190 1
3185 3218 1
3185 3221 1
3185 3222 1
3186 3187 1
3186 3217 1
3186 3218 1
3186 3221 1
3186 3798 1
3186 3801 1
3186 3802 1
3186 3835 1
3187 3188 1
3187 3190 1
3187 3756 1
3187 3801 1
3187 3802 1
3187 3805 1
3188 3189 1
3188 3190 1
3188 3191 1
3189 3190 1
3189 3191 1
3189 3192 1
3189 3194 1
3189 3222 1
3189 3225 1
3189 3226 1
3190 3191 1
3190 3221 1
3190 3222 1
3190 3225 1
3190 3802 1
3190 3805 1
3190 3806 1
3190 3839 1
3191 3192 1
3191 3194 1
3191 3760 1
3191 3805 1
3191 3806 1
3191 3809 1
3192 3193 1
3192 3194 1
3192 3195 1
3193 3194 1
3193 3195 1
3193 3226 1
3193 3229 1
3194 3195 1
3194 3225 1
3194 3226 1
3194 3229 1
3194 3806 1
3194 3809 1
3194 3810 1
3194 3843 1
3195 3764 1
3195 3809 1
3195 3810 1
3196 3197 1
3196 3198 1
3196 3199 1
3197 3198 1
3197 3199 1
3197 3200 1
3197 3202 1
3197 3230 1
3197 3233 1
3197 3234 1
3198 3199 1
3198 3230 1
3198 3233 1
3198 3813 1
3198 3814 1
3198 3847 1
3199 3200 1
3199 3202 1
3199 3768 1
3199 3813 1
3199 3814 1
3199 3817 1
3200 3201 1
3200 3202 1
3200 3203 1
3201 3202 1
3201 3203 1
3201 3204 1
3201 3206 1
3201 3234 1
3201 3237 1
3201 3238 1
3202 3203 1
3202 3233 1
3202 3234 1
3202 3237 1
3202 3814 1
3202 3817 1
3202 3818 1
3202 3851 1
3203 3204 1
3203 3206 1
3203 3772 1
3203 3817 1
3203 3818 1
3203 3821 1
3204 3205 1
3204 3206 1
3204 3207 1
3205 3206 1
3205 3207 1
3205 3208 1
3205 3210 1
3205 3238 1
3205 3241 1
3205 3242 1
3206 3207 1
3206 3237 1
3206 3238 1
3206 3241 1
3206 3818 1
3206 3821 1
3206 3822 1
3206 3855 1
3207 3208 1
3207 3210 1
3207 3776 1
3207 3821 1
3207 3822 1
3207 3825 1
3208 3209 1
3208 3210 1
3208 3211 1
3209 3210 1
3209 3211 1
3209 3212 1
3209 3242 1
3210 3211 1
3210 3241 1
3210 3242 1
3210 3822 1
3210 3825 1
3210 3826 1
3210 3859 1
3211 3212 1
3211 3780 1
3211 3825 1
3211 3826 1
3211 3829 1
3213 3214 1
3213 3216 1
3213 3794 1
3213 3831 1
3214 3215 1
3214 3216 1
3214 3217 1
3215 3216 1
3215 3217 1
3215 3218 1
3215 3220 1
3215 3243 1
3215 3244 1
3216 3217 1
3216 3243 1
3216 3831 1
3216 3832 1
3217 3218 1
3217 3220 1
3217 3798 1
3217 3831 1
3217 3832 1
3217 3835 1
3218 3219 1
3218 3220 1
3218 3221 1
3219 3220 1
3219 3221 1
3219 3222 1
3219 3224 1
3219 3244 1
3219 3247 1
3219 3248 1
3220 3221 1
3220 3243 1
3220 3244 1
3220 3247 1
3220 3832 1
3220 3835 1
3220 3836 1
3220 3861 1
3221 3222 1
3221 3224 1
3221 3802 1
3221 3835 1
3221 3836 1
3221 3839 1
3222 3223 1
3222 3224 1
3222 3225 1
3223 3224 1
3223 3225 1
3223 3226 1
3223 3228 1
3223 3248 1
3223 3251 1
3223 3252 1
3224 3225 1
3224 3247 1
3224 3248 1
3224 3251 1
3224 3836 1
3224 3839 1
3224 3840 1
3224 3865 1
3225 3226 1
3225 3228 1
3225 3806 1
3225 3839 1
3225 3840 1
3225 3843 1
3226 3227 1
3226 3228 1
3226 3229 1
3227 3228 1
3227 3229 1
3227 3252 1
3227 3255 1
3228 3229 1
3228 3251 1
3228 3252 1
3228 3255 1
3228 3840 1
3228 3843 1
3228 3844 1
3228 3869 1
3229 3810 1
3229 3843 1
3229 3844 1
3230 3231 1
3230 3232 1
3230 3233 1
3231 3232 1
3231 3233 1
3231 3234 1
3231 3236 1
3231 3256 1
3231 3259 1
3231 3260 1
3232 3233 1
3232 3256 1
3232 3259 1
3232 3847 1
3232 3848 1
3232 3873 1
3233 3234 1
3233 3236 1
3233 3814 1
3233 3847 1
3233 3848 1
3233 3851 1
3234 3235 1
3234 3236 1
3234 3237 1
3235 3236 1
3235 3237 1
3235 3238 1
3235 3240 1
3235 3260 1
3235 3263 1
3235 3264 1
3236 3237 1
3236 3259 1
3236 3260 1
3236 3263 1
3236 3848 1
3236 3851 1
3236 3852 1
3236 3877 1
3237 3238 1
3237 3240 1
3237 3818 1
3237 3851 1
3237 3852 1
3237 3855 1
3238 3239 1
3238 3240 1
3238 3241 1
3239 3240 1
3239 3241 1
3239 3242 1
3239 3264 1
3239 3266 1
3240 3241 1
3240 3263 1
3240 3264 1
3240 3266 1
3240 3852 1
3240 3855 1
3240 3856 1
3240 3881 1
3241 3242 1
3241 3822 1
3241 3855 1
3241 3856 1
3241 3859 1
3243 3244 1
3243 3246 1
3243 3832 1
3243 3861 1
3244 3245 1
3244 3246 1
3244 3247 1
3245 3246 1
3245 3247 1
3245 3248 1
3245 3250 1
3245 3268 1
3245 3269 1
3246 3247 1
3246 3268 1
3246 3861 1
3246 3862 1
3247 3248 1
3247 3250 1
3247 3836 1
3247 3861 1
3247 3862 1
3247 3865 1
3248 3249 1
3248 3250 1
3248 3251 1
3249 3250 1
3249 3251 1
3249 3252 1
3249 3254 1
3249 3269 1
3249 3272 1
3249 3273 1
3250 3251 1
3250 3268 1
3250 3269 1
3250 3272 1
3250 3862 1
3250 3865 1
3250 3866 1
3250 3886 1
3251 3252 1
3251 3254 1
3251 3840 1
3251 3865 1
3251 3866 1
3251 3869 1
3252 3253 1
3252 3254 1
3252 3255 1
3253 3254 1
3253 3255 1
3253 3273 1
3253 3276 1
3254 3255 1
3254 3272 1
3254 3273 1
3254 3276 1
3254 3866 1
3254 3869 1
3254 3870 1
3254 3890 1
3255 3844 1
3255 3869 1
3255 3870 1
3256 3257 1
3256 3258 1
3256 3259 1
3257 3258 1
3257 3259 1
3257 3260 1
3257 3262 1
3257 3277 1
3257 3280 1
3257 3281 1
3258 3259 1
3258 3277 1
3258 3280 1
3258 3873 1
3258 3874 1
3258 3894 1
3259 3260 1
3259 3262 1
3259 3848 1
3259 3873 1
3259 3874 1
3259 3877 1
3260 3261 1
3260 3262 1
3260 3263 1
3261 3262 1
3261 3263 1
3261 3264 1
3261 3265 1
3261 3281 1
3261 3284 1
3261 3285 1
3262 3263 1
3262 3280 1
3262 3281 1
3262 3284 1
3262 3874 1
3262 3877 1
3262 3878 1
3262 3898 1
3263 3264 1
3263 3265 1
3263 3852 1
3263 3877 1
3263 3878 1
3263 3881 1
3264 3265 1
3264 3266 1
3265 3266 1
3265 3284 1
3265 3285 1
3265 3878 1
3265 3881 1
3265 3902 1
3266 3856 1
3266 3881 1
3267 3268 1
3267 3269 1
3267 3271 1
3267 3286 1
3268 3269 1
3268 3271 1
3268 3862 1
3268 3884 1
3268 3886 1
3269 3270 1
3269 3271 1
3269 3272 1
3270 3271 1
3270 3272 1
3270 3273 1
3270 3275 1
3270 3286 1
3270 3289 1
3270 3290 1
3271 3272 1
3271 3286 1
3271 3289 1
3271 3884 1
3271 3886 1
3271 3887 1
3271 3903 1
3272 3273 1
3272 3275 1
3272 3866 1
3272 3886 1
3272 3887 1
3272 3890 1
3273 3274 1
3273 3275 1
3273 3276 1
3274 3275 1
3274 3276 1
3274 3290 1
3274 3293 1
3275 3276 1
3275 3289 1
3275 3290 1
3275 3293 1
3275 3887 1
3275 3890 1
3275 3891 1
3275 3907 1
3276 3870 1
3276 3890 1
3276 3891 1
3277 3278 1
3277 3279 1
3277 3280 1
3278 3279 1
3278 3280 1
3278 3281 1
3278 3283 1
3278 3294 1
3278 3297 1
3278 3298 1
3279 3280 1
3279 3294 1
3279 3297 1
3279 3894 1
3279 3895 1
3279 3911 1
3280 3281 1
3280 3283 1
3280 3874 1
3280 3894 1
3280 3895 1
3280 3898 1
3281 3282 1
3281 3283 1
3281 3284 1
3282 3283 1
3282 3284 1
3282 3285 1
3282 3298 1
3282 3301 1
3283 3284 1
3283 3297 1
3283 3298 1
3283 3301 1
3283 3895 1
3283 3898 1
3283 3899 1
3283 3915 1
3284 3285 1
3284 3878 1
3284 3898 1
3284 3899 1
3284 3902 1
3286 3287 1
3286 3288 1
3286 3289 1
3287 3288 1
3287 3289 1
3287 3290 1
3287 3292 1
3287 3302 1
3287 3304 1
3287 3305 1
3288 3289 1
3288 3302 1
3288 3304 1
3288 3903 1
3288 3904 1
3288 3919 1
3289 3290 1
3289 3292 1
3289 3887 1
3289 3903 1
3289 3904 1
3289 3907 1
3290 3291 1
3290 3292 1
3290 3293 1
3291 3292 1
3291 3293 1
3291 3305 1
3291 3308 1
3292 3293 1
3292 3304 1
3292 3305 1
3292 3308 1
3292 3904 1
3292 3907 1
3292 3908 1
3292 3922 1
3293 3891 1
3293 3907 1
3293 3908 1
3294 3295 1
3294 3296 1
3294 3297 1
3295 3296 1
3295 3297 1
3295 3298 1
3295 3300 1
3295 3309 1
3295 3312 1
3295 3313 1
3296 3297 1
3296 3309 1
3296 3312 1
3296 3911 1
3296 3912 1
3296 3926 1
3297 3298 1
3297 3300 1
3297 3895 1
3297 3911 1
3297 3912 1
3297 3915 1
3298 3299 1
3298 3300 1
3298 3301 1
3299 3300 1
3299 3301 1
3299 3313 1
3299 3315 1
3300 3301 1
3300 3312 1
3300 3313 1
3300 3315 1
3300 3912 1
3300 3915 1
3300 3916 1
3300 3930 1
3301 3899 1
3301 3915 1
3301 3916 1
3302 3303 1
3302 3304 1
3303 3304 1
3303 3305 1
3303 3307 1
3303 3317 1
3303 3318 1
3304 3305 1
3304 3307 1
3304 3904 1
3304 3919 1
3304 3920 1
3304 3922 1
3305 3306 1
3305 3307 1
3305 3308 1
3306 3307 1
3306 3308 1
3306 3318 1
3306 3321 1
3307 3308 1
3307 3317 1
3307 3318 1
3307 3321 1
3307 3920 1
3307 3922 1
3307 3923 1
3307 3935 1
3308 3908 1
3308 3922 1
3308 3923 1
3309 3310 1
3309 3311 1
3309 3312 1
3310 3311 1
3310 3312 1
3310 3313 1
3310 3314 1
3310 3322 1
3310 3325 1
3310 3326 1
3311 3312 1
3311 3322 1
3311 3325 1
3311 3926 1
3311 3927 1
3311 3939 1
3312 3313 1
3312 3314 1
3312 3912 1
3312 3926 1
3312 3927 1
3312 3930 1
3313 3314 1
3313 3315 1
3314 3315 1
3314 3325 1
3314 3326 1
3314 3927 1
3314 3930 1
3314 3943 1
3315 3916 1
3315 3930 1
3316 3317 1
3316 3318 1
3316 3320 1
3316 3329 1
3316 3330 1
3317 3318 1
3317 3320 1
3317 3920 1
3317 3933 1
3317 3935 1
3318 3319 1
3318 3320 1
3318 3321 1
3319 3320 1
3319 3321 1
3319 3330 1
3319 3333 1
3320 3321 1
3320 3329 1
3320 3330 1
3320 3333 1
3320 3933 1
3320 3935 1
3320 3936 1
3320 3947 1
3321 3923 1
3321 3935 1
3321 3936 1
3322 3323 1
3322 3324 1
3322 3325 1
3323 3324 1
3323 3325 1
3323 3326 1
3323 3327 1
3323 3334 1
3323 3337 1
3323 3338 1
3324 3325 1
3324 3334 1
3324 3337 1
3324 3939 1
3324 3940 1
3324 3951 1
3325 3326 1
3325 3327 1
3325 3927 1
3325 3939 1
3325 3940 1
3325 3943 1
3326 3327 1
3327 3337 1
3327 3338 1
3327 3341 1
3327 3940 1
3327 3943 1
3327 3955 1
3328 3329 1
3328 3330 1
3328 3332 1
3328 3344 1
3328 3345 1
3329 3330 1
3329 3332 1
3329 3933 1
3329 3945 1
3329 3947 1
3330 3331 1
3330 3332 1
3330 3333 1
3331 3332 1
3331 3333 1
3331 3345 1
3331 3348 1
3332 3333 1
3332 3344 1
3332 3345 1
3332 3348 1
3332 3945 1
3332 3947 1
3332 3948 1
3332 3962 1
3333 3936 1
3333 3947 1
3333 3948 1
3334 3335 1
3334 3336 1
3334 3337 1
3335 3336 1
3335 3337 1
3335 3338 1
3335 3340 1
3335 3349 1
3335 3352 1
3335 3353 1
3336 3337 1
3336 3349 1
3336 3352 1
3336 3951 1
3336 3952 1
3336 3966 1
3337 3338 1
3337 3340 1
3337 3940 1
3337 3951 1
3337 3952 1
3337 3955 1
3338 3339 1
3338 3340 1
3338 3341 1
3339 3340 1
3339 3341 1
3339 3353 1
3339 3356 1
3340 3341 1
3340 3352 1
3340 3353 1
3340 3356 1
3340 3952 1
3340 3955 1
3340 3956 1
3340 3970 1
3341 3955 1
3341 3956 1
3342 3343 1
3342 3344 1
3342 3345 1
3342 3347 1
3342 3357 1
3342 3360 1
3342 3361 1
3343 3344 1
3343 3357 1
3343 3360 1
3343 3959 1
3343 3974 1
3344 3345 1
3344 3347 1
3344 3945 1
3344 3959 1
3344 3962 1
3345 3346 1
3345 3347 1
3345 3348 1
3346 3347 1
3346 3348 1
3346 3361 1
3346 3364 1
3347 3348 1
3347 3360 1
3347 3361 1
3347 3364 1
3347 3959 1
3347 3962 1
3347 3963 1
3347 3978 1
3348 3948 1
3348 3962 1
3348 3963 1
3349 3350 1
3349 3351 1
3349 3352 1
3350 3351 1
3350 3352 1
3350 3353 1
3350 3355 1
3350 3365 1
3350 3368 1
3350 3369 1
3351 3352 1
3351 3365 1
3351 3368 1
3351 3966 1
3351 3967 1
3351 3982 1
3352 3353 1
3352 3355 1
3352 3952 1
3352 3966 1
3352 3967 1
3352 3970 1
3353 3354 1
3353 3355 1
3353 3356 1
3354 3355 1
3354 3356 1
3354 3369 1
3354 3372 1
3354 3373 1
3355 3356 1
3355 3368 1
3355 3369 1
3355 3372 1
3355 3967 1
3355 3970 1
3355 3971 1
3355 3986 1
3356 3956 1
3356 3970 1
3356 3971 1
3357 3358 1
3357 3359 1
3357 3360 1
3358 3359 1
3358 3360 1
3358 3361 1
3358 3363 1
3358 3377 1
3358 3380 1
3358 3381 1
3359 3360 1
3359 3376 1
3359 3377 1
3359 3380 1
3359 3974 1
3359 3975 1
3359 3994 1
3360 3361 1
3360 3363 1
3360 3959 1
3360 3974 1
3360 3975 1
3360 3978 1
3361 3362 1
3361 3363 1
3361 3364 1
3362 3363 1
3362 3364 1
3362 3381 1
3362 3384 1
3363 3364 1
3363 3380 1
3363 3381 1
3363 3384 1
3363 3975 1
3363 3978 1
3363 3979 1
3363 3998 1
3364 3963 1
3364 3978 1
3364 3979 1
3365 3366 1
3365 3367 1
3365 3368 1
3366 3367 1
3366 3368 1
3366 3369 1
3366 3371 1
3366 3385 1
3366 3388 1
3366 3389 1
3367 3368 1
3367 3385 1
3367 3388 1
3367 3982 1
3367 3983 1
3367 4002 1
3368 3369 1
3368 3371 1
3368 3967 1
3368 3982 1
3368 3983 1
3368 3986 1
3369 3370 1
3369 3371 1
3369 3372 1
3370 3371 1
3370 3372 1
3370 3373 1
3370 3374 1
3370 3389 1
3370 3392 1
3370 3393 1
3371 3372 1
3371 3388 1
3371 3389 1
3371 3392 1
3371 3983 1
3371 3986 1
3371 3987 1
3371 4006 1
3372 3373 1
3372 3374 1
3372 3971 1
3372 3986 1
3372 3987 1
3372 3990 1
3373 3374 1
3374 3392 1
3374 3393 1
3374 3396 1
3374 3987 1
3374 3990 1
3374 4010 1
3375 3376 1
3375 3377 1
3375 3379 1
3375 3399 1
3375 3402 1
3375 3403 1
3376 3377 1
3376 3379 1
3376 3992 1
3376 3994 1
3377 3378 1
3377 3379 1
3377 3380 1
3378 3379 1
3378 3380 1
3378 3381 1
3378 3383 1
3378 3403 1
3378 3406 1
3378 3407 1
3379 3380 1
3379 3402 1
3379 3403 1
3379 3406 1
3379 3992 1
3379 3994 1
3379 3995 1
3379 4020 1
3380 3381 1
3380 3383 1
3380 3975 1
3380 3994 1
3380 3995 1
3380 3998 1
3381 3382 1
3381 3383 1
3381 3384 1
3382 3383 1
3382 3384 1
3382 3407 1
3382 3410 1
3383 3384 1
3383 3406 1
3383 3407 1
3383 3410 1
3383 3995 1
3383 3998 1
3383 3999 1
3383 4024 1
3384 3979 1
3384 3998 1
3384 3999 1
3385 3386 1
3385 3387 1
3385 3388 1
3386 3387 1
3386 3388 1
3386 3389 1
3386 3391 1
3386 3411 1
3386 3414 1
3386 3415 1
3387 3388 1
3387 3411 1
3387 3414 1
3387 4002 1
3387 4003 1
3387 4028 1
3388 3389 1
3388 3391 1
3388 3983 1
3388 4002 1
3388 4003 1
3388 4006 1
3389 3390 1
3389 3391 1
3389 3392 1
3390 3391 1
3390 3392 1
3390 3393 1
3390 3395 1
3390 3415 1
3390 3418 1
3390 3419 1
3391 3392 1
3391 3414 1
3391 3415 1
3391 3418 1
3391 4003 1
3391 4006 1
3391 4007 1
3391 4032 1
3392 3393 1
3392 3395 1
3392 3987 1
3392 4006 1
3392 4007 1
3392 4010 1
3393 3394 1
3393 3395 1
3393 3396 1
3394 3395 1
3394 3396 1
3394 3397 1
3394 3419 1
3394 3422 1
3394 3423 1
3395 3396 1
3395 3418 1
3395 3419 1
3395 3422 1
3395 4007 1
3395 4010 1
3395 4011 1
3395 4036 1
3396 3397 1
3396 4010 1
3396 4011 1
3397 3422 1
3397 3423 1
3397 3426 1
3397 4011 1
3397 4040 1
3398 3399 1
3398 3401 1
3398 3431 1
3398 3432 1
3399 3400 1
3399 3401 1
3399 3402 1
3400 3401 1
3400 3402 1
3400 3403 1
3400 3405 1
3400 3432 1
3400 3435 1
3400 3436 1
3401 3402 1
3401 3431 1
3401 3432 1
3401 3435 1
3401 4015 1
3401 4016 1
3401 4017 1
3401 4049 1
3402 3403 1
3402 3405 1
3402 3992 1
3402 4016 1
3402 4017 1
3402 4020 1
3403 3404 1
3403 3405 1
3403 3406 1
3404 3405 1
3404 3406 1
3404 3407 1
3404 3409 1
3404 3436 1
3404 3439 1
3404 3440 1
3405 3406 1
3405 3435 1
3405 3436 1
3405 3439 1
3405 4017 1
3405 4020 1
3405 4021 1
3405 4053 1
3406 3407 1
3406 3409 1
3406 3995 1
3406 4020 1
3406 4021 1
3406 4024 1
3407 3408 1
3407 3409 1
3407 3410 1
3408 3409 1
3408 3410 1
3408 3440 1
3408 3443 1
3409 3410 1
3409 3439 1
3409 3440 1
3409 3443 1
3409 4021 1
3409 4024 1
3409 4025 1
3409 4057 1
3410 3999 1
3410 4024 1
3410 4025 1
3411 3412 1
3411 3413 1
3411 3414 1
3412 3413 1
3412 3414 1
3412 3415 1
3412 3417 1
3412 3444 1
3412 3447 1
3412 3448 1
3413 3414 1
3413 3444 1
3413 3447 1
3413 4028 1
3413 4029 1
3413 4061 1
3414 3415 1
3414 3417 1
3414 4003 1
3414 4028 1
3414 4029 1
3414 4032 1
3415 3416 1
3415 3417 1
3415 3418 1
3416 3417 1
3416 3418 1
3416 3419 1
3416 3421 1
3416 3448 1
3416 3451 1
3416 3452 1
3417 3418 1
3417 3447 1
3417 3448 1
3417 3451 1
3417 4029 1
3417 4032 1
3417 4033 1
3417 4065 1
3418 3419 1
3418 3421 1
3418 4007 1
3418 4032 1
3418 4033 1
3418 4036 1
3419 3420 1
3419 3421 1
3419 3422 1
3420 3421 1
3420 3422 1
3420 3423 1
3420 3425 1
3420 3452 1
3420 3455 1
3420 3456 1
3421 3422 1
3421 3451 1
3421 3452 1
3421 3455 1
3421 4033 1
3421 4036 1
3421 4037 1
3421 4069 1
3422 3423 1
3422 3425 1
3422 4011 1
3422 4036 1
3422 4037 1
3422 4040 1
3423 3424 1
3423 3425 1
3423 3426 1
3424 3425 1
3424 3426 1
3424 3427 1
3424 3456 1
3424 3459 1
3424 3460 1
3425 3426 1
3425 3455 1
3425 3456 1
3425 3459 1
3425 4037 1
3425 4040 1
3425 4041 1
3425 4073 1
3426 3427 1
3426 4040 1
3426 4041 1
3427 3459 1
3427 3460 1
3427 3463 1
3427 4041 1
3427 4077 1
3428 3430 1
3428 3468 1
3428 3471 1
3428 3472 1
3429 3430 1
3429 3431 1
3429 3432 1
3429 3434 1
3429 3472 1
3429 3475 1
3429 3476 1
3430 3431 1
3430 3471 1
3430 3472 1
3430 3475 1
3430 4045 1
3430 4046 1
3430 4089 1
3431 3432 1
3431 3434 1
3431 4015 1
3431 4046 1
3431 4049 1
3432 3433 1
3432 3434 1
3432 3435 1
3433 3434 1
3433 3435 1
3433 3436 1
3433 3438 1
3433 3476 1
3433 3479 1
3433 3480 1
3434 3435 1
3434 3475 1
3434 3476 1
3434 3479 1
3434 4046 1
3434 4049 1
3434 4050 1
3434 4093 1
3435 3436 1
3435 3438 1
3435 4017 1
3435 4049 1
3435 4050 1
3435 4053 1
3436 3437 1
3436 3438 1
3436 3439 1
3437 3438 1
3437 3439 1
3437 3440 1
3437 3442 1
3437 3480 1
3437 3483 1
3437 3484 1
3438 3439 1
3438 3479 1
3438 3480 1
3438 3483 1
3438 4050 1
3438 4053 1
3438 4054 1
3438 4097 1
3439 3440 1
3439 3442 1
3439 4021 1
3439 4053 1
3439 4054 1
3439 4057 1
3440 3441 1
3440 3442 1
3440 3443 1
3441 3442 1
3441 3443 1
3441 3484 1
3441 3487 1
3442 3443 1
3442 3483 1
3442 3484 1
3442 3487 1
3442 4054 1
3442 4057 1
3442 4058 1
3442 4101 1
3443 4025 1
3443 4057 1
3443 4058 1
3444 3445 1
3444 3446 1
3444 3447 1
3445 3446 1
3445 3447 1
3445 3448 1
3445 3450 1
3445 3488 1
3445 3491 1
3445 3492 1
3446 3447 1
3446 3488 1
3446 3491 1
3446 4061 1
3446 4062 1
3446 4105 1
3447 3448 1
3447 3450 1
3447 4029 1
3447 4061 1
3447 4062 1
3447 4065 1
3448 3449 1
3448 3450 1
3448 3451 1
3449 3450 1
3449 3451 1
3449 3452 1
3449 3454 1
3449 3492 1
3449 3495 1
3449 3496 1
3450 3451 1
3450 3491 1
3450 3492 1
3450 3495 1
3450 4062 1
3450 4065 1
3450 4066 1
3450 4109 1
3451 3452 1
3451 3454 1
3451 4033 1
3451 4065 1
3451 4066 1
3451 4069 1
3452 3453 1
3452 3454 1
3452 3455 1
3453 3454 1
3453 3455 1
3453 3456 1
3453 3458 1
3453 3496 1
3453 3499 1
3453 3500 1
3454 3455 1
3454 3495 1
3454 3496 1
3454 3499 1
3454 4066 1
3454 4069 1
3454 4070 1
3454 4113 1
3455 3456 1
3455 3458 1
3455 4037 1
3455 4069 1
3455 4070 1
3455 4073 1
3456 3457 1
3456 3458 1
3456 3459 1
3457 3458 1
3457 3459 1
3457 3460 1
3457 3462 1
3457 3500 1
3457 3503 1
3457 3504 1
3458 3459 1
3458 3499 1
3458 3500 1
3458 3503 1
3458 4070 1
3458 4073 1
3458 4074 1
3458 4117 1
3459 3460 1
3459 3462 1
3459 4041 1
3459 4073 1
3459 4074 1
3459 4077 1
3460 3461 1
3460 3462 1
3460 3463 1
3461 3462 1
3461 3463 1
3461 3465 1
3461 3504 1
3461 3507 1
3461 3508 1
3462 3463 1
3462 3503 1
3462 3504 1
3462 3507 1
3462 4074 1
3462 4077 1
3462 4078 1
3462 4121 1
3463 3465 1
3463 4077 1
3463 4078 1
3464 3465 1
3464 3508 1
3464 3511 1
3464 3512 1
3465 3507 1
3465 3508 1
3465 3511 1
3465 4078 1
3465 4081 1
3465 4125 1
3466 3467 1
3466 3468 1
3466 3470 1
3466 3530 1
3466 3533 1
3466 3534 1
3467 3529 1
3467 3530 1
3467 3533 1
3467 4083 1
3467 4147 1
3468 3469 1
3468 3470 1
3468 3471 1
3469 3470 1
3469 3471 1
3469 3472 1
3469 3474 1
3469 3534 1
3469 3537 1
3469 3538 1
3470 3471 1
3470 3533 1
3470 3534 1
3470 3537 1
3470 4083 1
3470 4085 1
3470 4086 1
3470 4151 1
3471 3472 1
3471 3474 1
3471 4045 1
3471 4085 1
3471 4086 1
3471 4089 1
3472 3473 1
3472 3474 1
3472 3475 1
3473 3474 1
3473 3475 1
3473 3476 1
3473 3478 1
3473 3538 1
3473 3541 1
3473 3542 1
3474 3475 1
3474 3537 1
3474 3538 1
3474 3541 1
3474 4086 1
3474 4089 1
3474 4090 1
3474 4155 1
3475 3476 1
3475 3478 1
3475 4046 1
3475 4089 1
3475 4090 1
3475 4093 1
3476 3477 1
3476 3478 1
3476 3479 1
3477 3478 1
3477 3479 1
3477 3480 1
3477 3482 1
3477 3542 1
3477 3545 1
3477 3546 1
3478 3479 1
3478 3541 1
3478 3542 1
3478 3545 1
3478 4090 1
3478 4093 1
3478 4094 1
3478 4159 1
3479 3480 1
3479 3482 1
3479 4050 1
3479 4093 1
3479 4094 1
3479 4097 1
3480 3481 1
3480 3482 1
3480 3483 1
3481 3482 1
3481 3483 1
3481 3484 1
3481 3486 1
3481 3546 1
3481 3549 1
3481 3550 1
3482 3483 1
3482 3545 1
3482 3546 1
3482 3549 1
3482 4094 1
3482 4097 1
3482 4098 1
3482 4163 1
3483 3484 1
3483 3486 1
3483 4054 1
3483 4097 1
3483 4098 1
3483 4101 1
3484 3485 1
3484 3486 1
3484 3487 1
3485 3486 1
3485 3487 1
3485 3550 1
3485 3553 1
3486 3487 1
3486 3549 1
3486 3550 1
3486 3553 1
3486 4098 1
3486 4101 1
3486 4102 1
3486 4167 1
3487 4058 1
3487 4101 1
3487 4102 1
3488 3489 1
3488 3490 1
3488 3491 1
3489 3490 1
3489 3491 1
3489 3492 1
3489 3494 1
3489 3554 1
3489 3557 1
3489 3558 1
3490 3491 1
3490 3554 1
3490 3557 1
3490 4105 1
3490 4106 1
3490 4171 1
3491 3492 1
3491 3494 1
3491 4062 1
3491 4105 1
3491 4106 1
3491 4109 1
3492 3493 1
3492 3494 1
3492 3495 1
3493 3494 1
3493 3495 1
3493 3496 1
3493 3498 1
3493 3558 1
3493 3561 1
3493 3562 1
3494 3495 1
3494 3557 1
3494 3558 1
3494 3561 1
3494 4106 1
3494 4109 1
3494 4110 1
3494 4175 1
3495 3496 1
3495 3498 1
3495 4066 1
3495 4109 1
3495 4110 1
3495 4113 1
3496 3497 1
3496 3498 1
3496 3499 1
3497 3498 1
3497 3499 1
3497 3500 1
3497 3502 1
3497 3562 1
3497 3565 1
3497 3566 1
3498 3499 1
3498 3561 1
3498 3562 1
3498 3565 1
3498 4110 1
3498 4113 1
3498 4114 1
3498 4179 1
3499 3500 1
3499 3502 1
3499 4070 1
3499 4113 1
3499 4114 1
3499 4117 1
3500 3501 1
3500 3502 1
3500 3503 1
3501 3502 1
3501 3503 1
3501 3504 1
3501 3506 1
3501 3566 1
3501 3569 1
3501 3570 1
3502 3503 1
3502 3565 1
3502 3566 1
3502 3569 1
3502 4114 1
3502 4117 1
3502 4118 1
3502 4183 1
3503 3504 1
3503 3506 1
3503 4074 1
3503 4117 1
3503 4118 1
3503 4121 1
3504 3505 1
3504 3506 1
3504 3507 1
3505 3506 1
3505 3507 1
3505 3508 1
3505 3510 1
3505 3570 1
3505 3573 1
3505 3574 1
3506 3507 1
3506 3569 1
3506 3570 1
3506 3573 1
3506 4118 1
3506 4121 1
3506 4122 1
3506 4187 1
3507 3508 1
3507 3510 1
3507 4078 1
3507 4121 1
3507 4122 1
3507 4125 1
3508 3509 1
3508 3510 1
3508 3511 1
3509 3510 1
3509 3511 1
3509 3512 1
3509 3514 1
3509 3574 1
3509 3577 1
3509 3578 1
3510 3511 1
3510 3573 1
3510 3574 1
3510 3577 1
3510 4122 1
3510 4125 1
3510 4126 1
3510 4191 1
3511 3512 1
3511 3514 1
3511 4081 1
3511 4125 1
3511 4126 1
3511 4129 1
3512 3513 1
3512 3514 1
3512 3515 1
3513 3514 1
3513 3515 1
3513 3516 1
3513 3518 1
3513 3578 1
3513 3581 1
3513 3582 1
3514 3515 1
3514 3577 1
3514 3578 1
3514 3581 1
3514 4126 1
3514 4129 1
3514 4130 1
3514 4195 1
3515 3516 1
3515 3518 1
3515 4129 1
3515 4130 1
3515 4133 1
3516 3517 1
3516 3518 1
3517 3518 1
3517 3520 1
3517 3582 1
3517 3585 1
3517 3586 1
3518 3581 1
3518 3582 1
3518 3585 1
3518 4130 1
3518 4133 1
3518 4134 1
3518 4199 1
3519 3520 1
3519 3522 1
3519 3586 1
3519 3589 1
3519 3590 1
3520 3585 1
3520 3586 1
3520 3589 1
3520 4134 1
3520 4136 1
3520 4203 1
3521 3522 1
3521 3524 1
3521 3590 1
3521 3593 1
3521 3594 1
3522 3589 1
3522 3590 1
3522 3593 1
3522 4136 1
3522 4138 1
3522 4207 1
3523 3524 1
3523 3525 1
3523 3526 1
3523 3528 1
3523 3594 1
3523 3597 1
3523 3598 1
3524 3525 1
3524 3593 1
3524 3594 1
3524 3597 1
3524 4138 1
3524 4140 1
3524 4211 1
3525 3526 1
3525 3528 1
3525 4140 1
3525 4143 1
3526 3527 1
3526 3528 1
3526 3529 1
3527 3528 1
3527 3529 1
3527 3530 1
3527 3532 1
3527 3598 1
3527 3601 1
3527 3602 1
3528 3529 1
3528 3597 1
3528 3598 1
3528 3601 1
3528 4140 1
3528 4143 1
3528 4144 1
3528 4215 1
3529 3530 1
3529 3532 1
3529 4143 1
3529 4144 1
3529 4147 1
3530 3531 1
3530 3532 1
3530 3533 1
3531 3532 1
3531 3533 1
3531 3534 1
3531 3536 1
3531 3602 1
3531 3605 1
3531 3606 1
3532 3533 1
3532 3601 1
3532 3602 1
3532 3605 1
3532 4144 1
3532 4147 1
3532 4148 1
3532 4219 1
3533 3534 1
3533 3536 1
3533 4083 1
3533 4147 1
3533 4148 1
3533 4151 1
3534 3535 1
3534 3536 1
3534 3537 1
3535 3536 1
3535 3537 1
3535 3538 1
3535 3540 1
3535 3606 1
3535 3609 1
3535 3610 1
3536 3537 1
3536 3605 1
3536 3606 1
3536 3609 1
3536 4148 1
3536 4151 1
3536 4152 1
3536 4223 1
3537 3538 1
3537 3540 1
3537 4086 1
3537 4151 1
3537 4152 1
3537 4155 1
3538 3539 1
3538 3540 1
3538 3541 1
3539 3540 1
3539 3541 1
3539 3542 1
3539 3544 1
3539 3610 1
3539 3613 1
3539 3614 1
3540 3541 1
3540 3609 1
3540 3610 1
3540 3613 1
3540 4152 1
3540 4155 1
3540 4156 1
3540 4227 1
3541 3542 1
3541 3544 1
3541 4090 1
3541 4155 1
3541 4156 1
3541 4159 1
3542 3543 1
3542 3544 1
3542 3545 1
3543 3544 1
3543 3545 1
3543 3546 1
3543 3548 1
3543 3614 1
3543 3617 1
3543 3618 1
3544 3545 1
3544 3613 1
3544 3614 1
3544 3617 1
3544 4156 1
3544 4159 1
3544 4160 1
3544 4231 1
3545 3546 1
3545 3548 1
3545 4094 1
3545 4159 1
3545 4160 1
3545 4163 1
3546 3547 1
3546 3548 1
3546 3549 1
3547 3548 1
3547 3549 1
3547 3550 1
3547 3552 1
3547 3618 1
3547 3621 1
3547 3622 1
3548 3549 1
3548 3617 1
3548 3618 1
3548 3621 1
3548 4160 1
3548 4163 1
3548 4164 1
3548 4235 1
3549 3550 1
3549 3552 1
3549 4098 1
3549 4163 1
3549 4164 1
3549 4167 1
3550 3551 1
3550 3552 1
3550 3553 1
3551 3552 1
3551 3553 1
3551 3622 1
3551 3625 1
3552 3553 1
3552 3621 1
3552 3622 1
3552 3625 1
3552 4164 1
3552 4167 1
3552 4168 1
3552 4239 1
3553 4102 1
3553 4167 1
3553 4168 1
3554 3555 1
3554 3556 1
3554 3557 1
3555 3556 1
3555 3557 1
3555 3558 1
3555 3560 1
3556 3557 1
3556 4171 1
3556 4172 1
3557 3558 1
3557 3560 1
3557 4106 1
3557 4171 1
3557 4172 1
3557 4175 1
3558 3559 1
3558 3560 1
3558 3561 1
3559 3560 1
3559 3561 1
3559 3562 1
3559 3564 1
3560 3561 1
3560 4172 1
3560 4175 1
3560 4176 1
3561 3562 1
3561 3564 1
3561 4110 1
3561 4175 1
3561 4176 1
3561 4179 1
3562 3563 1
3562 3564 1
3562 3565 1
3563 3564 1
3563 3565 1
3563 3566 1
3563 3568 1
3564 3565 1
3564 4176 1
3564 4179 1
3564 4180 1
3565 3566 1
3565 3568 1
3565 4114 1
3565 4179 1
3565 4180 1
3565 4183 1
3566 3567 1
3566 3568 1
3566 3569 1
3567 3568 1
3567 3569 1
3567 3570 1
3567 3572 1
3568 3569 1
3568 4180 1
3568 4183 1
3568 4184 1
3569 3570 1
3569 3572 1
3569 4118 1
3569 4183 1
3569 4184 1
3569 4187 1
3570 3571 1
3570 3572 1
3570 3573 1
3571 3572 1
3571 3573 1
3571 3574 1
3571 3576 1
3572 3573 1
3572 4184 1
3572 4187 1
3572 4188 1
3573 3574 1
3573 3576 1
3573 4122 1
3573 4187 1
3573 4188 1
3573 4191 1
3574 3575 1
3574 3576 1
3574 3577 1
3575 3576 1
3575 3577 1
3575 3578 1
3575 3580 1
3576 3577 1
3576 4188 1
3576 4191 1
3576 4192 1
3577 3578 1
3577 3580 1
3577 4126 1
3577 4191 1
3577 4192 1
3577 4195 1
3578 3579 1
3578 3580 1
3578 3581 1
3579 3580 1
3579 3581 1
3579 3582 1
3579 3584 1
3580 3581 1
3580 4192 1
3580 4195 1
3580 4196 1
3581 3582 1
3581 3584 1
3581 4130 1
3581 4195 1
3581 4196 1
3581 4199 1
3582 3583 1
3582 3584 1
3582 3585 1
3583 3584 1
3583 3585 1
3583 3586 1
3583 3588 1
3584 3585 1
3584 4196 1
3584 4199 1
3584 4200 1
3585 3586 1
3585 3588 1
3585 4134 1
3585 4199 1
3585 4200 1
3585 4203 1
3586 3587 1
3586 3588 1
3586 3589 1
3587 3588 1
3587 3589 1
3587 3590 1
3587 3592 1
3588 3589 1
3588 4200 1
3588 4203 1
3588 4204 1
3589 3590 1
3589 3592 1
3589 4136 1
3589 4203 1
3589 4204 1
3589 4207 1
3590 3591 1
3590 3592 1
3590 3593 1
3591 3592 1
3591 3593 1
3591 3594 1
3591 3596 1
3592 3593 1
3592 4204 1
3592 4207 1
3592 4208 1
3593 3594 1
3593 3596 1
3593 4138 1
3593 4207 1
3593 4208 1
3593 4211 1
3594 3595 1
3594 3596 1
3594 3597 1
3595 3596 1
3595 3597 1
3595 3598 1
3595 3600 1
3596 3597 1
3596 4208 1
3596 4211 1
3596 4212 1
3597 3598 1
3597 3600 1
3597 4140 1
3597 4211 1
3597 4212 1
3597 4215 1
3598 3599 1
3598 3600 1
3598 3601 1
3599 3600 1
3599 3601 1
3599 3602 1
3599 3604 1
3600 3601 1
3600 4212 1
3600 4215 1
3600 4216 1
3601 3602 1
3601 3604 1
3601 4144 1
3601 4215 1
3601 4216 1
3601 4219 1
3602 3603 1
3602 3604 1
3602 3605 1
3603 3604 1
3603 3605 1
3603 3606 1
3603 3608 1
3604 3605 1
3604 4216 1
3604 4219 1
3604 4220 1
3605 3606 1
3605 3608 1
3605 4148 1
3605 4219 1
3605 4220 1
3605 4223 1
3606 3607 1
3606 3608 1
3606 3609 1
3607 3608 1
3607 3609 1
3607 3610 1
3607 3612 1
3608 3609 1
3608 4220 1
3608 4223 1
3608 4224 1
3609 3610 1
3609 3612 1
3609 4152 1
3609 4223 1
3609 4224 1
3609 4227 1
3610 3611 1
3610 3612 1
3610 3613 1
3611 3612 1
3611 3613 1
3611 3614 1
3611 3616 1
3612 3613 1
3612 4224 1
3612 4227 1
3612 4228 1
3613 3614 1
3613 3616 1
3613 4156 1
3613 4227 1
3613 4228 1
3613 4231 1
3614 3615 1
3614 3616 1
3614 3617 1
3615 3616 1
3615 3617 1
3615 3618 1
3615 3620 1
3616 3617 1
3616 4228 1
3616 4231 1
3616 4232 1
3617 3618 1
3617 3620 1
3617 4160 1
3617 4231 1
3617 4232 1
3617 4235 1
3618 3619 1
3618 3620 1
3618 3621 1
3619 3620 1
3619 3621 1
3619 3622 1
3619 3624 1
3620 3621 1
3620 4232 1
3620 4235 1
3620 4236 1
3621 3622 1
3621 3624 1
3621 4164 1
3621 4235 1
3621 4236 1
3621 4239 1
3622 3623 1
3622 3624 1
3622 3625 1
3623 3624 1
3623 3625 1
3624 3625 1
3624 4236 1
3624 4239 1
3624 4240 1
3625 4168 1
3625 4239 1
3625 4240 1
3626 3627 1
3626 3628 1
3626 3629 1
3627 3628 1
3627 3629 1
3627 3630 1
3627 3632 1
3627 3698 1
3627 3701 1
3627 3702 1
3628 3629 1
3628 3698 1
3628 3701 1
3628 4243 1
3628 4244 1
3628 4315 1
3629 3630 1
3629 3632 1
3629 4243 1
3629 4244 1
3629 4247 1
3630 3631 1
3630 3632 1
3630 3633 1
3631 3632 1
3631 3633 1
3631 3634 1
3631 3636 1
3631 3702 1
3631 3705 1
3631 3706 1
3632 3633 1
3632 3701 1
3632 3702 1
3632 3705 1
3632 4244 1
3632 4247 1
3632 4248 1
3632 4319 1
3633 3634 1
3633 3636 1
3633 4247 1
3633 4248 1
3633 4251 1
3634 3635 1
3634 3636 1
3634 3637 1
3635 3636 1
3635 3637 1
3635 3638 1
3635 3640 1
3635 3706 1
3635 3709 1
3635 3710 1
3636 3637 1
3636 3705 1
3636 3706 1
3636 3709 1
3636 4248 1
3636 4251 1
3636 4252 1
3636 4323 1
3637 3638 1
3637 3640 1
3637 4251 1
3637 4252 1
3637 4255 1
3638 3639 1
3638 3640 1
3638 3641 1
3639 3640 1
3639 3641 1
3639 3642 1
3639 3644 1
3639 3710 1
3639 3713 1
3639 3714 1
3640 3641 1
3640 3709 1
3640 3710 1
3640 3713 1
3640 4252 1
3640 4255 1
3640 4256 1
3640 4327 1
3641 3642 1
3641 3644 1
3641 4255 1
3641 4256 1
3641 4259 1
3642 3643 1
3642 3644 1
3642 3645 1
3643 3644 1
3643 3645 1
3643 3646 1
3643 3648 1
3643 3714 1
3643 3717 1
3643 3718 1
3644 3645 1
3644 3713 1
3644 3714 1
3644 3717 1
3644 4256 1
3644 4259 1
3644 4260 1
3644 4331 1
3645 3646 1
3645 3648 1
3645 4259 1
3645 4260 1
3645 4263 1
3646 3647 1
3646 3648 1
3646 3649 1
3647 3648 1
3647 3649 1
3647 3650 1
3647 3652 1
3647 3718 1
3647 3721 1
3647 3722 1
3648 3649 1
3648 3717 1
3648 3718 1
3648 3721 1
3648 4260 1
3648 4263 1
3648 4264 1
3648 4335 1
3649 3650 1
3649 3652 1
3649 4263 1
3649 4264 1
3649 4267 1
3650 3651 1
3650 3652 1
3650 3653 1
3651 3652 1
3651 3653 1
3651 3654 1
3651 3656 1
3651 3722 1
3651 3725 1
3651 3726 1
3652 3653 1
3652 3721 1
3652 3722 1
3652 3725 1
3652 4264 1
3652 4267 1
3652 4268 1
3652 4339 1
3653 3654 1
3653 3656 1
3653 4267 1
3653 4268 1
3653 4271 1
3654 3655 1
3654 3656 1
3654 3657 1
3655 3656 1
3655 3657 1
3655 3658 1
3655 3660 1
3655 3726 1
3655 3729 1
3655 3730 1
3656 3657 1
3656 3725 1
3656 3726 1
3656 3729 1
3656 4268 1
3656 4271 1
3656 4272 1
3656 4343 1
3657 3658 1
3657 3660 1
3657 4271 1
3657 4272 1
3657 4275 1
3658 3659 1
3658 3660 1
3658 3661 1
3659 3660 1
3659 3661 1
3659 3662 1
3659 3664 1
3659 3730 1
3659 3732 1
3659 3733 1
3660 3661 1
3660 3729 1
3660 3730 1
3660 3732 1
3660 4272 1
3660 4275 1
3660 4276 1
3660 4347 1
3661 3662 1
3661 3664 1
3661 4275 1
3661 4276 1
3661 4279 1
3662 3663 1
3662 3664 1
3662 3665 1
3663 3664 1
3663 3665 1
3663 3666 1
3663 3668 1
3663 3733 1
3663 3734 1
3663 3735 1
3664 3665 1
3664 3732 1
3664 3733 1
3664 3734 1
3664 4276 1
3664 4279 1
3664 4280 1
3664 4350 1
3665 3666 1
3665 3668 1
3665 4279 1
3665 4280 1
3665 4283 1
3666 3667 1
3666 3668 1
3666 3669 1
3667 3668 1
3667 3669 1
3667 3670 1
3667 3672 1
3667 3735 1
3667 3738 1
3667 3739 1
3668 3669 1
3668 3734 1
3668 3735 1
3668 3738 1
3668 4280 1
3668 4283 1
3668 4284 1
3668 4352 1
3669 3670 1
3669 3672 1
3669 4283 1
3669 4284 1
3669 4287 1
3670 3671 1
3670 3672 1
3670 3673 1
3671 3672 1
3671 3673 1
3671 3674 1
3671 3676 1
3671 3739 1
3671 3742 1
3671 3743 1
3672 3673 1
3672 3738 1
3672 3739 1
3672 3742 1
3672 4284 1
3672 4287 1
3672 4288 1
3672 4356 1
3673 3674 1
3673 3676 1
3673 4287 1
3673 4288 1
3673 4291 1
3674 3675 1
3674 3676 1
3674 3677 1
3675 3676 1
3675 3677 1
3675 3678 1
3675 3680 1
3675 3743 1
3675 3746 1
3675 3747 1
3676 3677 1
3676 3742 1
3676 3743 1
3676 3746 1
3676 4288 1
3676 4291 1
3676 4292 1
3676 4360 1
3677 3678 1
3677 3680 1
3677 4291 1
3677 4292 1
3677 4295 1
3678 3679 1
3678 3680 1
3678 3681 1
3679 3680 1
3679 3681 1
3679 3682 1
3679 3684 1
3679 3747 1
3679 3750 1
3679 3751 1
3680 3681 1
3680 3746 1
3680 3747 1
3680 3750 1
3680 4292 1
3680 4295 1
3680 4296 1
3680 4364 1
3681 3682 1
3681 3684 1
3681 4295 1
3681 4296 1
3681 4299 1
3682 3683 1
3682 3684 1
3682 3685 1
3683 3684 1
3683 3685 1
3683 3686 1
3683 3688 1
3683 3751 1
3683 3754 1
3683 3755 1
3684 3685 1
3684 3750 1
3684 3751 1
3684 3754 1
3684 4296 1
3684 4299 1
3684 4300 1
3684 4368 1
3685 3686 1
3685 3688 1
3685 4299 1
3685 4300 1
3685 4303 1
3686 3687 1
3686 3688 1
3686 3689 1
3687 3688 1
3687 3689 1
3687 3690 1
3687 3692 1
3687 3755 1
3687 3758 1
3687 3759 1
3688 3689 1
3688 3754 1
3688 3755 1
3688 3758 1
3688 4300 1
3688 4303 1
3688 4304 1
3688 4372 1
3689 3690 1
3689 3692 1
3689 4303 1
3689 4304 1
3689 4307 1
3690 3691 1
3690 3692 1
3690 3693 1
3691 3692 1
3691 3693 1
3691 3694 1
3691 3696 1
3691 3759 1
3691 3762 1
3691 3763 1
3692 3693 1
3692 3758 1
3692 3759 1
3692 3762 1
3692 4304 1
3692 4307 1
3692 4308 1
3692 4376 1
3693 3694 1
3693 3696 1
3693 4307 1
3693 4308 1
3693 4311 1
3694 3695 1
3694 3696 1
3694 3697 1
3695 3696 1
3695 3697 1
3695 3763 1
3695 3766 1
3696 3697 1
3696 3762 1
3696 3763 1
3696 3766 1
3696 4308 1
3696 4311 1
3696 4312 1
3696 4380 1
3697 4311 1
3697 4312 1
3698 3699 1
3698 3700 1
3698 3701 1
3699 3700 1
3699 3701 1
3699 3702 1
3699 3704 1
3699 3767 1
3699 3770 1
3699 3771 1
3700 3701 1
3700 3767 1
3700 3770 1
3700 4315 1
3700 4316 1
3700 4384 1
3701 3702 1
3701 3704 1
3701 4244 1
3701 4315 1
3701 4316 1
3701 4319 1
3702 3703 1
3702 3704 1
3702 3705 1
3703 3704 1
3703 3705 1
3703 3706 1
3703 3708 1
3703 3771 1
3703 3774 1
3703 3775 1
3704 3705 1
3704 3770 1
3704 3771 1
3704 3774 1
3704 4316 1
3704 4319 1
3704 4320 1
3704 4388 1
3705 3706 1
3705 3708 1
3705 4248 1
3705 4319 1
3705 4320 1
3705 4323 1
3706 3707 1
3706 3708 1
3706 3709 1
3707 3708 1
3707 3709 1
3707 3710 1
3707 3712 1
3707 3775 1
3707 3778 1
3707 3779 1
3708 3709 1
3708 3774 1
3708 3775 1
3708 3778 1
3708 4320 1
3708 4323 1
3708 4324 1
3708 4392 1
3709 3710 1
3709 3712 1
3709 4252 1
3709 4323 1
3709 4324 1
3709 4327 1
3710 3711 1
3710 3712 1
3710 3713 1
3711 3712 1
3711 3713 1
3711 3714 1
3711 3716 1
3711 3779 1
3711 3782 1
3711 3783 1
3712 3713 1
3712 3778 1
3712 3779 1
3712 3782 1
3712 4324 1
3712 4327 1
3712 4328 1
3712 4396 1
3713 3714 1
3713 3716 1
3713 4256 1
3713 4327 1
3713 4328 1
3713 4331 1
3714 3715 1
3714 3716 1
3714 3717 1
3715 3716 1
3715 3717 1
3715 3718 1
3715 3720 1
3715 3783 1
3715 3786 1
3715 3787 1
3716 3717 1
3716 3782 1
3716 3783 1
3716 3786 1
3716 4328 1
3716 4331 1
3716 4332 1
3716 4400 1
3717 3718 1
3717 3720 1
3717 4260 1
3717 4331 1
3717 4332 1
3717 4335 1
3718 3719 1
3718 3720 1
3718 3721 1
3719 3720 1
3719 3721 1
3719 3722 1
3719 3724 1
3719 3787 1
3719 3789 1
3719 3790 1
3720 3721 1
3720 3786 1
3720 3787 1
3720 3789 1
3720 4332 1
3720 4335 1
3720 4336 1
3720 4404 1
3721 3722 1
3721 3724 1
3721 4264 1
3721 4335 1
3721 4336 1
3721 4339 1
3722 3723 1
3722 3724 1
3722 3725 1
3723 3724 1
3723 3725 1
3723 3726 1
3723 3728 1
3723 3790 1
3724 3725 1
3724 3789 1
3724 3790 1
3724 4336 1
3724 4339 1
3724 4340 1
3724 4407 1
3725 3726 1
3725 3728 1
3725 4268 1
3725 4339 1
3725 4340 1
3725 4343 1
3726 3727 1
3726 3728 1
3726 3729 1
3727 3728 1
3727 3729 1
3727 3730 1
3727 3731 1
3728 3729 1
3728 4340 1
3728 4343 1
3728 4344 1
3729 3730 1
3729 3731 1
3729 4272 1
3729 4343 1
3729 4344 1
3729 4347 1
3730 3731 1
3730 3732 1
3731 3732 1
3731 4344 1
3731 4347 1
3732 3733 1
3732 4276 1
3732 4347 1
3732 4350 1
3733 3734 1
3734 3735 1
3734 3737 1
3734 4280 1
3734 4350 1
3734 4352 1
3735 3736 1
3735 3737 1
3735 3738 1
3736 3737 1
3736 3738 1
3736 3739 1
3736 3741 1
3737 3738 1
3737 4352 1
3737 4353 1
3738 3739 1
3738 3741 1
3738 4284 1
3738 4352 1
3738 4353 1
3738 4356 1
3739 3740 1
3739 3741 1
3739 3742 1
3740 3741 1
3740 3742 1
3740 3743 1
3740 3745 1
3740 3791 1
3741 3742 1
3741 4353 1
3741 4356 1
3741 4357 1
3742 3743 1
3742 3745 1
3742 4288 1
3742 4356 1
3742 4357 1
3742 4360 1
3743 3744 1
3743 3745 1
3743 3746 1
3744 3745 1
3744 3746 1
3744 3747 1
3744 3749 1
3744 3791 1
3744 3792 1
3744 3793 1
3745 3746 1
3745 3791 1
3745 3792 1
3745 4357 1
3745 4360 1
3745 4361 1
3745 4408 1
3746 3747 1
3746 3749 1
3746 4292 1
3746 4360 1
3746 4361 1
3746 4364 1
3747 3748 1
3747 3749 1
3747 3750 1
3748 3749 1
3748 3750 1
3748 3751 1
3748 3753 1
3748 3793 1
3748 3796 1
3748 3797 1
3749 3750 1
3749 3792 1
3749 3793 1
3749 3796 1
3749 4361 1
3749 4364 1
3749 4365 1
3749 4410 1
3750 3751 1
3750 3753 1
3750 4296 1
3750 4364 1
3750 4365 1
3750 4368 1
3751 3752 1
3751 3753 1
3751 3754 1
3752 3753 1
3752 3754 1
3752 3755 1
3752 3757 1
3752 3797 1
3752 3800 1
3752 3801 1
3753 3754 1
3753 3796 1
3753 3797 1
3753 3800 1
3753 4365 1
3753 4368 1
3753 4369 1
3753 4414 1
3754 3755 1
3754 3757 1
3754 4300 1
3754 4368 1
3754 4369 1
3754 4372 1
3755 3756 1
3755 3757 1
3755 3758 1
3756 3757 1
3756 3758 1
3756 3759 1
3756 3761 1
3756 3801 1
3756 3804 1
3756 3805 1
3757 3758 1
3757 3800 1
3757 3801 1
3757 3804 1
3757 4369 1
3757 4372 1
3757 4373 1
3757 4418 1
3758 3759 1
3758 3761 1
3758 4304 1
3758 4372 1
3758 4373 1
3758 4376 1
3759 3760 1
3759 3761 1
3759 3762 1
3760 3761 1
3760 3762 1
3760 3763 1
3760 3765 1
3760 3805 1
3760 3808 1
3760 3809 1
3761 3762 1
3761 3804 1
3761 3805 1
3761 3808 1
3761 4373 1
3761 4376 1
3761 4377 1
3761 4422 1
3762 3763 1
3762 3765 1
3762 4308 1
3762 4376 1
3762 4377 1
3762 4380 1
3763 3764 1
3763 3765 1
3763 3766 1
3764 3765 1
3764 3766 1
3764 3809 1
3764 3812 1
3765 3766 1
3765 3808 1
3765 3809 1
3765 3812 1
3765 4377 1
3765 4380 1
3765 4381 1
3765 4426 1
3766 4312 1
3766 4380 1
3766 4381 1
3767 3768 1
3767 3769 1
3767 3770 1
3768 3769 1
3768 3770 1
3768 3771 1
3768 3773 1
3768 3813 1
3768 3816 1
3768 3817 1
3769 3770 1
3769 3813 1
3769 3816 1
3769 4384 1
3769 4385 1
3769 4430 1
3770 3771 1
3770 3773 1
3770 4316 1
3770 4384 1
3770 4385 1
3770 4388 1
3771 3772 1
3771 3773 1
3771 3774 1
3772 3773 1
3772 3774 1
3772 3775 1
3772 3777 1
3772 3817 1
3772 3820 1
3772 3821 1
3773 3774 1
3773 3816 1
3773 3817 1
3773 3820 1
3773 4385 1
3773 4388 1
3773 4389 1
3773 4434 1
3774 3775 1
3774 3777 1
3774 4320 1
3774 4388 1
3774 4389 1
3774 4392 1
3775 3776 1
3775 3777 1
3775 3778 1
3776 3777 1
3776 3778 1
3776 3779 1
3776 3781 1
3776 3821 1
3776 3824 1
3776 3825 1
3777 3778 1
3777 3820 1
3777 3821 1
3777 3824 1
3777 4389 1
3777 4392 1
3777 4393 1
3777 4438 1
3778 3779 1
3778 3781 1
3778 4324 1
3778 4392 1
3778 4393 1
3778 4396 1
3779 3780 1
3779 3781 1
3779 3782 1
3780 3781 1
3780 3782 1
3780 3783 1
3780 3785 1
3780 3825 1
3780 3828 1
3780 3829 1
3781 3782 1
3781 3824 1
3781 3825 1
3781 3828 1
3781 4393 1
3781 4396 1
3781 4397 1
3781 4442 1
3782 3783 1
3782 3785 1
3782 4328 1
3782 4396 1
3782 4397 1
3782 4400 1
3783 3784 1
3783 3785 1
3783 3786 1
3784 3785 1
3784 3786 1
3784 3787 1
3784 3788 1
3784 3829 1
3785 3786 1
3785 3828 1
3785 3829 1
3785 4397 1
3785 4400 1
3785 4401 1
3785 4446 1
3786 3787 1
3786 3788 1
3786 4332 1
3786 4400 1
3786 4401 1
3786 4404 1
3787 3788 1
3787 3789 1
3788 3789 1
3788 4401 1
3788 4404 1
3789 3790 1
3789 4336 1
3789 4404 1
3789 4407 1
3791 3792 1
3792 3793 1
3792 3795 1
3792 4361 1
3792 4408 1
3792 4410 1
3793 3794 1
3793 3795 1
3793 3796 1
3794 3795 1
3794 3796 1
3794 3797 1
3794 3799 1
3794 3830 1
3794 3831 1
3795 3796 1
3795 3830 1
3795 4410 1
3795 4411 1
3796 3797 1
3796 3799 1
3796 4365 1
3796 4410 1
3796 4411 1
3796 4414 1
3797 3798 1
3797 3799 1
3797 3800 1
3798 3799 1
3798 3800 1
3798 3801 1
3798 3803 1
3798 3831 1
3798 3834 1
3798 3835 1
3799 3800 1
3799 3830 1
3799 3831 1
3799 3834 1
3799 4411 1
3799 4414 1
3799 4415 1
3799 4448 1
3800 3801 1
3800 3803 1
3800 4369 1
3800 4414 1
3800 4415 1
3800 4418 1
3801 3802 1
3801 3803 1
3801 3804 1
3802 3803 1
3802 3804 1
3802 3805 1
3802 3807 1
3802 3835 1
3802 3838 1
3802 3839 1
3803 3804 1
3803 3834 1
3803 3835 1
3803 3838 1
3803 4415 1
3803 4418 1
3803 4419 1
3803 4452 1
3804 3805 1
3804 3807 1
3804 4373 1
3804 4418 1
3804 4419 1
3804 4422 1
3805 3806 1
3805 3807 1
3805 3808 1
3806 3807 1
3806 3808 1
3806 3809 1
3806 3811 1
3806 3839 1
3806 3842 1
3806 3843 1
3807 3808 1
3807 3838 1
3807 3839 1
3807 3842 1
3807 4419 1
3807 4422 1
3807 4423 1
3807 4456 1
3808 3809 1
3808 3811 1
3808 4377 1
3808 4422 1
3808 4423 1
3808 4426 1
3809 3810 1
3809 3811 1
3809 3812 1
3810 3811 1
3810 3812 1
3810 3843 1
3810 3846 1
3811 3812 1
3811 3842 1
3811 3843 1
3811 3846 1
3811 4423 1
3811 4426 1
3811 4427 1
3811 4460 1
3812 4381 1
3812 4426 1
3812 4427 1
3813 3814 1
3813 3815 1
3813 3816 1
3814 3815 1
3814 3816 1
3814 3817 1
3814 3819 1
3814 3847 1
3814 3850 1
3814 3851 1
3815 3816 1
3815 3847 1
3815 3850 1
3815 4430 1
3815 4431 1
3815 4464 1
3816 3817 1
3816 3819 1
3816 4385 1
3816 4430 1
3816 4431 1
3816 4434 1
3817 3818 1
3817 3819 1
3817 3820 1
3818 3819 1
3818 3820 1
3818 3821 1
3818 3823 1
3818 3851 1
3818 3854 1
3818 3855 1
3819 3820 1
3819 3850 1
3819 3851 1
3819 3854 1
3819 4431 1
3819 4434 1
3819 4435 1
3819 4468 1
3820 3821 1
3820 3823 1
3820 4389 1
3820 4434 1
3820 4435 1
3820 4438 1
3821 3822 1
3821 3823 1
3821 3824 1
3822 3823 1
3822 3824 1
3822 3825 1
3822 3827 1
3822 3855 1
3822 3858 1
3822 3859 1
3823 3824 1
3823 3854 1
3823 3855 1
3823 3858 1
3823 4435 1
3823 4438 1
3823 4439 1
3823 4472 1
3824 3825 1
3824 3827 1
3824 4393 1
3824 4438 1
3824 4439 1
3824 4442 1
3825 3826 1
3825 3827 1
3825 3828 1
3826 3827 1
3826 3828 1
3826 3829 1
3826 3859 1
3827 3828 1
3827 3858 1
3827 3859 1
3827 4439 1
3827 4442 1
3827 4443 1
3827 4476 1
3828 3829 1
3828 4397 1
3828 4442 1
3828 4443 1
3828 4446 1
3830 3831 1
3830 3833 1
3830 4411 1
3830 4448 1
3831 3832 1
3831 3833 1
3831 3834 1
3832 3833 1
3832 3834 1
3832 3835 1
3832 3837 1
3832 3860 1
3832 3861 1
3833 3834 1
3833 3860 1
3833 4448 1
3833 4449 1
3834 3835 1
3834 3837 1
3834 4415 1
3834 4448 1
3834 4449 1
3834 4452 1
3835 3836 1
3835 3837 1
3835 3838 1
3836 3837 1
3836 3838 1
3836 3839 1
3836 3841 1
3836 3861 1
3836 3864 1
3836 3865 1
3837 3838 1
3837 3860 1
3837 3861 1
3837 3864 1
3837 4449 1
3837 4452 1
3837 4453 1
3837 4478 1
3838 3839 1
3838 3841 1
3838 4419 1
3838 4452 1
3838 4453 1
3838 4456 1
3839 3840 1
3839 3841 1
3839 3842 1
3840 3841 1
3840 3842 1
3840 3843 1
3840 3845 1
3840 3865 1
3840 3868 1
3840 3869 1
3841 3842 1
3841 3864 1
3841 3865 1
3841 3868 1
3841 4453 1
3841 4456 1
3841 4457 1
3841 4482 1
3842 3843 1
3842 3845 1
3842 4423 1
3842 4456 1
3842 4457 1
3842 4460 1
3843 3844 1
3843 3845 1
3843 3846 1
3844 3845 1
3844 3846 1
3844 3869 1
3844 3872 1
3845 3846 1
3845 3868 1
3845 3869 1
3845 3872 1
3845 4457 1
3845 4460 1
3845 4461 1
3845 4486 1
3846 4427 1
3846 4460 1
3846 4461 1
3847 3848 1
3847 3849 1
3847 3850 1
3848 3849 1
3848 3850 1
3848 3851 1
3848 3853 1
3848 3873 1
3848 3876 1
3848 3877 1
3849 3850 1
3849 3873 1
3849 3876 1
3849 4464 1
3849 4465 1
3849 4490 1
3850 3851 1
3850 3853 1
3850 4431 1
3850 4464 1
3850 4465 1
3850 4468 1
3851 3852 1
3851 3853 1
3851 3854 1
3852 3853 1
3852 3854 1
3852 3855 1
3852 3857 1
3852 3877 1
3852 3880 1
3852 3881 1
3853 3854 1
3853 3876 1
3853 3877 1
3853 3880 1
3853 4465 1
3853 4468 1
3853 4469 1
3853 4494 1
3854 3855 1
3854 3857 1
3854 4435 1
3854 4468 1
3854 4469 1
3854 4472 1
3855 3856 1
3855 3857 1
3855 3858 1
3856 3857 1
3856 3858 1
3856 3859 1
3856 3881 1
3856 3883 1
3857 3858 1
3857 3880 1
3857 3881 1
3857 3883 1
3857 4469 1
3857 4472 1
3857 4473 1
3857 4498 1
3858 3859 1
3858 4439 1
3858 4472 1
3858 4473 1
3858 4476 1
3860 3861 1
3860 3863 1
3860 4449 1
3860 4478 1
3861 3862 1
3861 3863 1
3861 3864 1
3862 3863 1
3862 3864 1
3862 3865 1
3862 3867 1
3862 3885 1
3862 3886 1
3863 3864 1
3863 3885 1
3863 4478 1
3863 4479 1
3864 3865 1
3864 3867 1
3864 4453 1
3864 4478 1
3864 4479 1
3864 4482 1
3865 3866 1
3865 3867 1
3865 3868 1
3866 3867 1
3866 3868 1
3866 3869 1
3866 3871 1
3866 3886 1
3866 3889 1
3866 3890 1
3867 3868 1
3867 3885 1
3867 3886 1
3867 3889 1
3867 4479 1
3867 4482 1
3867 4483 1
3867 4503 1
3868 3869 1
3868 3871 1
3868 4457 1
3868 4482 1
3868 4483 1
3868 4486 1
3869 3870 1
3869 3871 1
3869 3872 1
3870 3871 1
3870 3872 1
3870 3890 1
3870 3893 1
3871 3872 1
3871 3889 1
3871 3890 1
3871 3893 1
3871 4483 1
3871 4486 1
3871 4487 1
3871 4507 1
3872 4461 1
3872 4486 1
3872 4487 1
3873 3874 1
3873 3875 1
3873 3876 1
3874 3875 1
3874 3876 1
3874 3877 1
3874 3879 1
3874 3894 1
3874 3897 1
3874 3898 1
3875 3876 1
3875 3894 1
3875 3897 1
3875 4490 1
3875 4491 1
3875 4511 1
3876 3877 1
3876 3879 1
3876 4465 1
3876 4490 1
3876 4491 1
3876 4494 1
3877 3878 1
3877 3879 1
3877 3880 1
3878 3879 1
3878 3880 1
3878 3881 1
3878 3882 1
3878 3898 1
3878 3901 1
3878 3902 1
3879 3880 1
3879 3897 1
3879 3898 1
3879 3901 1
3879 4491 1
3879 4494 1
3879 4495 1
3879 4515 1
3880 3881 1
3880 3882 1
3880 4469 1
3880 4494 1
3880 4495 1
3880 4498 1
3881 3882 1
3881 3883 1
3882 3883 1
3882 3901 1
3882 3902 1
3882 4495 1
3882 4498 1
3882 4519 1
3883 4473 1
3883 4498 1
3884 3885 1
3884 3886 1
3884 3888 1
3884 3903 1
3885 3886 1
3885 3888 1
3885 4479 1
3885 4501 1
3885 4503 1
3886 3887 1
3886 3888 1
3886 3889 1
3887 3888 1
3887 3889 1
3887 3890 1
3887 3892 1
3887 3903 1
3887 3906 1
3887 3907 1
3888 3889 1
3888 3903 1
3888 3906 1
3888 4501 1
3888 4503 1
3888 4504 1
3888 4520 1
3889 3890 1
3889 3892 1
3889 4483 1
3889 4503 1
3889 4504 1
3889 4507 1
3890 3891 1
3890 3892 1
3890 3893 1
3891 3892 1
3891 3893 1
3891 3907 1
3891 3910 1
3892 3893 1
3892 3906 1
3892 3907 1
3892 3910 1
3892 4504 1
3892 4507 1
3892 4508 1
3892 4524 1
3893 4487 1
3893 4507 1
3893 4508 1
3894 3895 1
3894 3896 1
3894 3897 1
3895 3896 1
3895 3897 1
3895 3898 1
3895 3900 1
3895 3911 1
3895 3914 1
3895 3915 1
3896 3897 1
3896 3911 1
3896 3914 1
3896 4511 1
3896 4512 1
3896 4528 1
3897 3898 1
3897 3900 1
3897 4491 1
3897 4511 1
3897 4512 1
3897 4515 1
3898 3899 1
3898 3900 1
3898 3901 1
3899 3900 1
3899 3901 1
3899 3902 1
3899 3915 1
3899 3918 1
3900 3901 1
3900 3914 1
3900 3915 1
3900 3918 1
3900 4512 1
3900 4515 1
3900 4516 1
3900 4532 1
3901 3902 1
3901 4495 1
3901 4515 1
3901 4516 1
3901 4519 1
3903 3904 1
3903 3905 1
3903 3906 1
3904 3905 1
3904 3906 1
3904 3907 1
3904 3909 1
3904 3919 1
3904 3921 1
3904 3922 1
3905 3906 1
3905 3919 1
3905 3921 1
3905 4520 1
3905 4521 1
3905 4536 1
3906 3907 1
3906 3909 1
3906 4504 1
3906 4520 1
3906 4521 1
3906 4524 1
3907 3908 1
3907 3909 1
3907 3910 1
3908 3909 1
3908 3910 1
3908 3922 1
3908 3925 1
3909 3910 1
3909 3921 1
3909 3922 1
3909 3925 1
3909 4521 1
3909 4524 1
3909 4525 1
3909 4539 1
3910 4508 1
3910 4524 1
3910 4525 1
3911 3912 1
3911 3913 1
3911 3914 1
3912 3913 1
3912 3914 1
3912 3915 1
3912 3917 1
3912 3926 1
3912 3929 1
3912 3930 1
3913 3914 1
3913 3926 1
3913 3929 1
3913 4528 1
3913 4529 1
3913 4543 1
3914 3915 1
3914 3917 1
3914 4512 1
3914 4528 1
3914 4529 1
3914 4532 1
3915 3916 1
3915 3917 1
3915 3918 1
3916 3917 1
3916 3918 1
3916 3930 1
3916 3932 1
3917 3918 1
3917 3929 1
3917 3930 1
3917 3932 1
3917 4529 1
3917 4532 1
3917 4533 1
3917 4547 1
3918 4516 1
3918 4532 1
3918 4533 1
3919 3920 1
3919 3921 1
3920 3921 1
3920 3922 1
3920 3924 1
3920 3934 1
3920 3935 1
3921 3922 1
3921 3924 1
3921 4521 1
3921 4536 1
3921 4537 1
3921 4539 1
3922 3923 1
3922 3924 1
3922 3925 1
3923 3924 1
3923 3925 1
3923 3935 1
3923 3938 1
3924 3925 1
3924 3934 1
3924 3935 1
3924 3938 1
3924 4537 1
3924 4539 1
3924 4540 1
3924 4552 1
3925 4525 1
3925 4539 1
3925 4540 1
3926 3927 1
3926 3928 1
3926 3929 1
3927 3928 1
3927 3929 1
3927 3930 1
3927 3931 1
3927 3939 1
3927 3942 1
3927 3943 1
3928 3929 1
3928 3939 1
3928 3942 1
3928 4543 1
3928 4544 1
3928 4556 1
3929 3930 1
3929 3931 1
3929 4529 1
3929 4543 1
3929 4544 1
3929 4547 1
3930 3931 1
3930 3932 1
3931 3932 1
3931 3942 1
3931 3943 1
3931 4544 1
3931 4547 1
3931 4560 1
3932 4533 1
3932 4547 1
3933 3934 1
3933 3935 1
3933 3937 1
3933 3946 1
3933 3947 1
3934 3935 1
3934 3937 1
3934 4537 1
3934 4550 1
3934 4552 1
3935 3936 1
3935 3937 1
3935 3938 1
3936 3937 1
3936 3938 1
3936 3947 1
3936 3950 1
3937 3938 1
3937 3946 1
3937 3947 1
3937 3950 1
3937 4550 1
3937 4552 1
3937 4553 1
3937 4564 1
3938 4540 1
3938 4552 1
3938 4553 1
3939 3940 1
3939 3941 1
3939 3942 1
3940 3941 1
3940 3942 1
3940 3943 1
3940 3944 1
3940 3951 1
3940 3954 1
3940 3955 1
3941 3942 1
3941 3951 1
3941 3954 1
3941 4556 1
3941 4557 1
3941 4568 1
3942 3943 1
3942 3944 1
3942 4544 1
3942 4556 1
3942 4557 1
3942 4560 1
3943 3944 1
3944 3954 1
3944 3955 1
3944 3958 1
3944 4557 1
3944 4560 1
3944 4572 1
3945 3946 1
3945 3947 1
3945 3949 1
3945 3961 1
3945 3962 1
3946 3947 1
3946 3949 1
3946 4550 1
3946 4562 1
3946 4564 1
3947 3948 1
3947 3949 1
3947 3950 1
3948 3949 1
3948 3950 1
3948 3962 1
3948 3965 1
3949 3950 1
3949 3961 1
3949 3962 1
3949 3965 1
3949 4562 1
3949 4564 1
3949 4565 1
3949 4579 1
3950 4553 1
3950 4564 1
3950 4565 1
3951 3952 1
3951 3953 1
3951 3954 1
3952 3953 1
3952 3954 1
3952 3955 1
3952 3957 1
3952 3966 1
3952 3969 1
3952 3970 1
3953 3954 1
3953 3966 1
3953 3969 1
3953 4568 1
3953 4569 1
3953 4583 1
3954 3955 1
3954 3957 1
3954 4557 1
3954 4568 1
3954 4569 1
3954 4572 1
3955 3956 1
3955 3957 1
3955 3958 1
3956 3957 1
3956 3958 1
3956 3970 1
3956 3973 1
3957 3958 1
3957 3969 1
3957 3970 1
3957 3973 1
3957 4569 1
3957 4572 1
3957 4573 1
3957 4587 1
3958 4572 1
3958 4573 1
3959 3960 1
3959 3961 1
3959 3962 1
3959 3964 1
3959 3974 1
3959 3977 1
3959 3978 1
3960 3961 1
3960 3974 1
3960 3977 1
3960 4576 1
3960 4591 1
3961 3962 1
3961 3964 1
3961 4562 1
3961 4576 1
3961 4579 1
3962 3963 1
3962 3964 1
3962 3965 1
3963 3964 1
3963 3965 1
3963 3978 1
3963 3981 1
3964 3965 1
3964 3977 1
3964 3978 1
3964 3981 1
3964 4576 1
3964 4579 1
3964 4580 1
3964 4595 1
3965 4565 1
3965 4579 1
3965 4580 1
3966 3967 1
3966 3968 1
3966 3969 1
3967 3968 1
3967 3969 1
3967 3970 1
3967 3972 1
3967 3982 1
3967 3985 1
3967 3986 1
3968 3969 1
3968 3982 1
3968 3985 1
3968 4583 1
3968 4584 1
3968 4599 1
3969 3970 1
3969 3972 1
3969 4569 1
3969 4583 1
3969 4584 1
3969 4587 1
3970 3971 1
3970 3972 1
3970 3973 1
3971 3972 1
3971 3973 1
3971 3986 1
3971 3989 1
3971 3990 1
3972 3973 1
3972 3985 1
3972 3986 1
3972 3989 1
3972 4584 1
3972 4587 1
3972 4588 1
3972 4603 1
3973 4573 1
3973 4587 1
3973 4588 1
3974 3975 1
3974 3976 1
3974 3977 1
3975 3976 1
3975 3977 1
3975 3978 1
3975 3980 1
3975 3994 1
3975 3997 1
3975 3998 1
3976 3977 1
3976 3993 1
3976 3994 1
3976 3997 1
3976 4591 1
3976 4592 1
3976 4611 1
3977 3978 1
3977 3980 1
3977 4576 1
3977 4591 1
3977 4592 1
3977 4595 1
3978 3979 1
3978 3980 1
3978 3981 1
3979 3980 1
3979 3981 1
3979 3998 1
3979 4001 1
3980 3981 1
3980 3997 1
3980 3998 1
3980 4001 1
3980 4592 1
3980 4595 1
3980 4596 1
3980 4615 1
3981 4580 1
3981 4595 1
3981 4596 1
3982 3983 1
3982 3984 1
3982 3985 1
3983 3984 1
3983 3985 1
3983 3986 1
3983 3988 1
3983 4002 1
3983 4005 1
3983 4006 1
3984 3985 1
3984 4002 1
3984 4005 1
3984 4599 1
3984 4600 1
3984 4619 1
3985 3986 1
3985 3988 1
3985 4584 1
3985 4599 1
3985 4600 1
3985 4603 1
3986 3987 1
3986 3988 1
3986 3989 1
3987 3988 1
3987 3989 1
3987 3990 1
3987 3991 1
3987 4006 1
3987 4009 1
3987 4010 1
3988 3989 1
3988 4005 1
3988 4006 1
3988 4009 1
3988 4600 1
3988 4603 1
3988 4604 1
3988 4623 1
3989 3990 1
3989 3991 1
3989 4588 1
3989 4603 1
3989 4604 1
3989 4607 1
3990 3991 1
3991 4009 1
3991 4010 1
3991 4013 1
3991 4604 1
3991 4607 1
3991 4627 1
3992 3993 1
3992 3994 1
3992 3996 1
3992 4016 1
3992 4019 1
3992 4020 1
3993 3994 1
3993 3996 1
3993 4609 1
3993 4611 1
3994 3995 1
3994 3996 1
3994 3997 1
3995 3996 1
3995 3997 1
3995 3998 1
3995 4000 1
3995 4020 1
3995 4023 1
3995 4024 1
3996 3997 1
3996 4019 1
3996 4020 1
3996 4023 1
3996 4609 1
3996 4611 1
3996 4612 1
3996 4637 1
3997 3998 1
3997 4000 1
3997 4592 1
3997 4611 1
3997 4612 1
3997 4615 1
3998 3999 1
3998 4000 1
3998 4001 1
3999 4000 1
3999 4001 1
3999 4024 1
3999 4027 1
4000 4001 1
4000 4023 1
4000 4024 1
4000 4027 1
4000 4612 1
4000 4615 1
4000 4616 1
4000 4641 1
4001 4596 1
4001 4615 1
4001 4616 1
4002 4003 1
4002 4004 1
4002 4005 1
4003 4004 1
4003 4005 1
4003 4006 1
4003 4008 1
4003 4028 1
4003 4031 1
4003 4032 1
4004 4005 1
4004 4028 1
4004 4031 1
4004 4619 1
4004 4620 1
4004 4645 1
4005 4006 1
4005 4008 1
4005 4600 1
4005 4619 1
4005 4620 1
4005 4623 1
4006 4007 1
4006 4008 1
4006 4009 1
4007 4008 1
4007 4009 1
4007 4010 1
4007 4012 1
4007 4032 1
4007 4035 1
4007 4036 1
4008 4009 1
4008 4031 1
4008 4032 1
4008 4035 1
4008 4620 1
4008 4623 1
4008 4624 1
4008 4649 1
4009 4010 1
4009 4012 1
4009 4604 1
4009 4623 1
4009 4624 1
4009 4627 1
4010 4011 1
4010 4012 1
4010 4013 1
4011 4012 1
4011 4013 1
4011 4014 1
4011 4036 1
4011 4039 1
4011 4040 1
4012 4013 1
4012 4035 1
4012 4036 1
4012 4039 1
4012 4624 1
4012 4627 1
4012 4628 1
4012 4653 1
4013 4014 1
4013 4627 1
4013 4628 1
4014 4039 1
4014 4040 1
4014 4043 1
4014 4628 1
4014 4657 1
4015 4016 1
4015 4018 1
4015 4048 1
4015 4049 1
4016 4017 1
4016 4018 1
4016 4019 1
4017 4018 1
4017 4019 1
4017 4020 1
4017 4022 1
4017 4049 1
4017 4052 1
4017 4053 1
4018 4019 1
4018 4048 1
4018 4049 1
4018 4052 1
4018 4632 1
4018 4633 1
4018 4634 1
4018 4666 1
4019 4020 1
4019 4022 1
4019 4609 1
4019 4633 1
4019 4634 1
4019 4637 1
4020 4021 1
4020 4022 1
4020 4023 1
4021 4022 1
4021 4023 1
4021 4024 1
4021 4026 1
4021 4053 1
4021 4056 1
4021 4057 1
4022 4023 1
4022 4052 1
4022 4053 1
4022 4056 1
4022 4634 1
4022 4637 1
4022 4638 1
4022 4670 1
4023 4024 1
4023 4026 1
4023 4612 1
4023 4637 1
4023 4638 1
4023 4641 1
4024 4025 1
4024 4026 1
4024 4027 1
4025 4026 1
4025 4027 1
4025 4057 1
4025 4060 1
4026 4027 1
4026 4056 1
4026 4057 1
4026 4060 1
4026 4638 1
4026 4641 1
4026 4642 1
4026 4674 1
4027 4616 1
4027 4641 1
4027 4642 1
4028 4029 1
4028 4030 1
4028 4031 1
4029 4030 1
4029 4031 1
4029 4032 1
4029 4034 1
4029 4061 1
4029 4064 1
4029 4065 1
4030 4031 1
4030 4061 1
4030 4064 1
4030 4645 1
4030 4646 1
4030 4678 1
4031 4032 1
4031 4034 1
4031 4620 1
4031 4645 1
4031 4646 1
4031 4649 1
4032 4033 1
4032 4034 1
4032 4035 1
4033 4034 1
4033 4035 1
4033 4036 1
4033 4038 1
4033 4065 1
4033 4068 1
4033 4069 1
4034 4035 1
4034 4064 1
4034 4065 1
4034 4068 1
4034 4646 1
4034 4649 1
4034 4650 1
4034 4682 1
4035 4036 1
4035 4038 1
4035 4624 1
4035 4649 1
4035 4650 1
4035 4653 1
4036 4037 1
4036 4038 1
4036 4039 1
4037 4038 1
4037 4039 1
4037 4040 1
4037 4042 1
4037 4069 1
4037 4072 1
4037 4073 1
4038 4039 1
4038 4068 1
4038 4069 1
4038 4072 1
4038 4650 1
4038 4653 1
4038 4654 1
4038 4686 1
4039 4040 1
4039 4042 1
4039 4628 1
4039 4653 1
4039 4654 1
4039 4657 1
4040 4041 1
4040 4042 1
4040 4043 1
4041 4042 1
4041 4043 1
4041 4044 1
4041 4073 1
4041 4076 1
4041 4077 1
4042 4043 1
4042 4072 1
4042 4073 1
4042 4076 1
4042 4654 1
4042 4657 1
4042 4658 1
4042 4690 1
4043 4044 1
4043 4657 1
4043 4658 1
4044 4076 1
4044 4077 1
4044 4080 1
4044 4658 1
4044 4694 1
4045 4047 1
4045 4085 1
4045 4088 1
4045 4089 1
4046 4047 1
4046 4048 1
4046 4049 1
4046 4051 1
4046 4089 1
4046 4092 1
4046 4093 1
4047 4048 1
4047 4088 1
4047 4089 1
4047 4092 1
4047 4662 1
4047 4663 1
4047 4706 1
4048 4049 1
4048 4051 1
4048 4632 1
4048 4663 1
4048 4666 1
4049 4050 1
4049 4051 1
4049 4052 1
4050 4051 1
4050 4052 1
4050 4053 1
4050 4055 1
4050 4093 1
4050 4096 1
4050 4097 1
4051 4052 1
4051 4092 1
4051 4093 1
4051 4096 1
4051 4663 1
4051 4666 1
4051 4667 1
4051 4710 1
4052 4053 1
4052 4055 1
4052 4634 1
4052 4666 1
4052 4667 1
4052 4670 1
4053 4054 1
4053 4055 1
4053 4056 1
4054 4055 1
4054 4056 1
4054 4057 1
4054 4059 1
4054 4097 1
4054 4100 1
4054 4101 1
4055 4056 1
4055 4096 1
4055 4097 1
4055 4100 1
4055 4667 1
4055 4670 1
4055 4671 1
4055 4714 1
4056 4057 1
4056 4059 1
4056 4638 1
4056 4670 1
4056 4671 1
4056 4674 1
4057 4058 1
4057 4059 1
4057 4060 1
4058 4059 1
4058 4060 1
4058 4101 1
4058 4104 1
4059 4060 1
4059 4100 1
4059 4101 1
4059 4104 1
4059 4671 1
4059 4674 1
4059 4675 1
4059 4718 1
4060 4642 1
4060 4674 1
4060 4675 1
4061 4062 1
4061 4063 1
4061 4064 1
4062 4063 1
4062 4064 1
4062 4065 1
4062 4067 1
4062 4105 1
4062 4108 1
4062 4109 1
4063 4064 1
4063 4105 1
4063 4108 1
4063 4678 1
4063 4679 1
4063 4722 1
4064 4065 1
4064 4067 1
4064 4646 1
4064 4678 1
4064 4679 1
4064 4682 1
4065 4066 1
4065 4067 1
4065 4068 1
4066 4067 1
4066 4068 1
4066 4069 1
4066 4071 1
4066 4109 1
4066 4112 1
4066 4113 1
4067 4068 1
4067 4108 1
4067 4109 1
4067 4112 1
4067 4679 1
4067 4682 1
4067 4683 1
4067 4726 1
4068 4069 1
4068 4071 1
4068 4650 1
4068 4682 1
4068 4683 1
4068 4686 1
4069 4070 1
4069 4071 1
4069 4072 1
4070 4071 1
4070 4072 1
4070 4073 1
4070 4075 1
4070 4113 1
4070 4116 1
4070 4117 1
4071 4072 1
4071 4112 1
4071 4113 1
4071 4116 1
4071 4683 1
4071 4686 1
4071 4687 1
4071 4730 1
4072 4073 1
4072 4075 1
4072 4654 1
4072 4686 1
4072 4687 1
4072 4690 1
4073 4074 1
4073 4075 1
4073 4076 1
4074 4075 1
4074 4076 1
4074 4077 1
4074 4079 1
4074 4117 1
4074 4120 1
4074 4121 1
4075 4076 1
4075 4116 1
4075 4117 1
4075 4120 1
4075 4687 1
4075 4690 1
4075 4691 1
4075 4734 1
4076 4077 1
4076 4079 1
4076 4658 1
4076 4690 1
4076 4691 1
4076 4694 1
4077 4078 1
4077 4079 1
4077 4080 1
4078 4079 1
4078 4080 1
4078 4082 1
4078 4121 1
4078 4124 1
4078 4125 1
4079 4080 1
4079 4120 1
4079 4121 1
4079 4124 1
4079 4691 1
4079 4694 1
4079 4695 1
4079 4738 1
4080 4082 1
4080 4694 1
4080 4695 1
4081 4082 1
4081 4125 1
4081 4128 1
4081 4129 1
4082 4124 1
4082 4125 1
4082 4128 1
4082 4695 1
4082 4698 1
4082 4742 1
4083 4084 1
4083 4085 1
4083 4087 1
4083 4147 1
4083 4150 1
4083 4151 1
4084 4146 1
4084 4147 1
4084 4150 1
4084 4700 1
4084 4764 1
4085 4086 1
4085 4087 1
4085 4088 1
4086 4087 1
4086 4088 1
4086 4089 1
4086 4091 1
4086 4151 1
4086 4154 1
4086 4155 1
4087 4088 1
4087 4150 1
4087 4151 1
4087 4154 1
4087 4700 1
4087 4702 1
4087 4703 1
4087 4768 1
4088 4089 1
4088 4091 1
4088 4662 1
4088 4702 1
4088 4703 1
4088 4706 1
4089 4090 1
4089 4091 1
4089 4092 1
4090 4091 1
4090 4092 1
4090 4093 1
4090 4095 1
4090 4155 1
4090 4158 1
4090 4159 1
4091 4092 1
4091 4154 1
4091 4155 1
4091 4158 1
4091 4703 1
4091 4706 1
4091 4707 1
4091 4772 1
4092 4093 1
4092 4095 1
4092 4663 1
4092 4706 1
4092 4707 1
4092 4710 1
4093 4094 1
4093 4095 1
4093 4096 1
4094 4095 1
4094 4096 1
4094 4097 1
4094 4099 1
4094 4159 1
4094 4162 1
4094 4163 1
4095 4096 1
4095 4158 1
4095 4159 1
4095 4162 1
4095 4707 1
4095 4710 1
4095 4711 1
4095 4776 1
4096 4097 1
4096 4099 1
4096 4667 1
4096 4710 1
4096 4711 1
4096 4714 1
4097 4098 1
4097 4099 1
4097 4100 1
4098 4099 1
4098 4100 1
4098 4101 1
4098 4103 1
4098 4163 1
4098 4166 1
4098 4167 1
4099 4100 1
4099 4162 1
4099 4163 1
4099 4166 1
4099 4711 1
4099 4714 1
4099 4715 1
4099 4780 1
4100 4101 1
4100 4103 1
4100 4671 1
4100 4714 1
4100 4715 1
4100 4718 1
4101 4102 1
4101 4103 1
4101 4104 1
4102 4103 1
4102 4104 1
4102 4167 1
4102 4170 1
4103 4104 1
4103 4166 1
4103 4167 1
4103 4170 1
4103 4715 1
4103 4718 1
4103 4719 1
4103 4784 1
4104 4675 1
4104 4718 1
4104 4719 1
4105 4106 1
4105 4107 1
4105 4108 1
4106 4107 1
4106 4108 1
4106 4109 1
4106 4111 1
4106 4171 1
4106 4174 1
4106 4175 1
4107 4108 1
4107 4171 1
4107 4174 1
4107 4722 1
4107 4723 1
4107 4788 1
4108 4109 1
4108 4111 1
4108 4679 1
4108 4722 1
4108 4723 1
4108 4726 1
4109 4110 1
4109 4111 1
4109 4112 1
4110 4111 1
4110 4112 1
4110 4113 1
4110 4115 1
4110 4175 1
4110 4178 1
4110 4179 1
4111 4112 1
4111 4174 1
4111 4175 1
4111 4178 1
4111 4723 1
4111 4726 1
4111 4727 1
4111 4792 1
4112 4113 1
4112 4115 1
4112 4683 1
4112 4726 1
4112 4727 1
4112 4730 1
4113 4114 1
4113 4115 1
4113 4116 1
4114 4115 1
4114 4116 1
4114 4117 1
4114 4119 1
4114 4179 1
4114 4182 1
4114 4183 1
4115 4116 1
4115 4178 1
4115 4179 1
4115 4182 1
4115 4727 1
4115 4730 1
4115 4731 1
4115 4796 1
4116 4117 1
4116 4119 1
4116 4687 1
4116 4730 1
4116 4731 1
4116 4734 1
4117 4118 1
4117 4119 1
4117 4120 1
4118 4119 1
4118 4120 1
4118 4121 1
4118 4123 1
4118 4183 1
4118 4186 1
4118 4187 1
4119 4120 1
4119 4182 1
4119 4183 1
4119 4186 1
4119 4731 1
4119 4734 1
4119 4735 1
4119 4800 1
4120 4121 1
4120 4123 1
4120 4691 1
4120 4734 1
4120 4735 1
4120 4738 1
4121 4122 1
4121 4123 1
4121 4124 1
4122 4123 1
4122 4124 1
4122 4125 1
4122 4127 1
4122 4187 1
4122 4190 1
4122 4191 1
4123 4124 1
4123 4186 1
4123 4187 1
4123 4190 1
4123 4735 1
4123 4738 1
4123 4739 1
4123 4804 1
4124 4125 1
4124 4127 1
4124 4695 1
4124 4738 1
4124 4739 1
4124 4742 1
4125 4126 1
4125 4127 1
4125 4128 1
4126 4127 1
4126 4128 1
4126 4129 1
4126 4131 1
4126 4191 1
4126 4194 1
4126 4195 1
4127 4128 1
4127 4190 1
4127 4191 1
4127 4194 1
4127 4739 1
4127 4742 1
4127 4743 1
4127 4808 1
4128 4129 1
4128 4131 1
4128 4698 1
4128 4742 1
4128 4743 1
4128 4746 1
4129 4130 1
4129 4131 1
4129 4132 1
4130 4131 1
4130 4132 1
4130 4133 1
4130 4135 1
4130 4195 1
4130 4198 1
4130 4199 1
4131 4132 1
4131 4194 1
4131 4195 1
4131 4198 1
4131 4743 1
4131 4746 1
4131 4747 1
4131 4812 1
4132 4133 1
4132 4135 1
4132 4746 1
4132 4747 1
4132 4750 1
4133 4134 1
4133 4135 1
4134 4135 1
4134 4137 1
4134 4199 1
4134 4202 1
4134 4203 1
4135 4198 1
4135 4199 1
4135 4202 1
4135 4747 1
4135 4750 1
4135 4751 1
4135 4816 1
4136 4137 1
4136 4139 1
4136 4203 1
4136 4206 1
4136 4207 1
4137 4202 1
4137 4203 1
4137 4206 1
4137 4751 1
4137 4753 1
4137 4820 1
4138 4139 1
4138 4141 1
4138 4207 1
4138 4210 1
4138 4211 1
4139 4206 1
4139 4207 1
4139 4210 1
4139 4753 1
4139 4755 1
4139 4824 1
4140 4141 1
4140 4142 1
4140 4143 1
4140 4145 1
4140 4211 1
4140 4214 1
4140 4215 1
4141 4142 1
4141 4210 1
4141 4211 1
4141 4214 1
4141 4755 1
4141 4757 1
4141 4828 1
4142 4143 1
4142 4145 1
4142 4757 1
4142 4760 1
4143 4144 1
4143 4145 1
4143 4146 1
4144 4145 1
4144 4146 1
4144 4147 1
4144 4149 1
4144 4215 1
4144 4218 1
4144 4219 1
4145 4146 1
4145 4214 1
4145 4215 1
4145 4218 1
4145 4757 1
4145 4760 1
4145 4761 1
4145 4832 1
4146 4147 1
4146 4149 1
4146 4760 1
4146 4761 1
4146 4764 1
4147 4148 1
4147 4149 1
4147 4150 1
4148 4149 1
4148 4150 1
4148 4151 1
4148 4153 1
4148 4219 1
4148 4222 1
4148 4223 1
4149 4150 1
4149 4218 1
4149 4219 1
4149 4222 1
4149 4761 1
4149 4764 1
4149 4765 1
4149 4836 1
4150 4151 1
4150 4153 1
4150 4700 1
4150 4764 1
4150 4765 1
4150 4768 1
4151 4152 1
4151 4153 1
4151 4154 1
4152 4153 1
4152 4154 1
4152 4155 1
4152 4157 1
4152 4223 1
4152 4226 1
4152 4227 1
4153 4154 1
4153 4222 1
4153 4223 1
4153 4226 1
4153 4765 1
4153 4768 1
4153 4769 1
4153 4840 1
4154 4155 1
4154 4157 1
4154 4703 1
4154 4768 1
4154 4769 1
4154 4772 1
4155 4156 1
4155 4157 1
4155 4158 1
4156 4157 1
4156 4158 1
4156 4159 1
4156 4161 1
4156 4227 1
4156 4230 1
4156 4231 1
4157 4158 1
4157 4226 1
4157 4227 1
4157 4230 1
4157 4769 1
4157 4772 1
4157 4773 1
4157 4844 1
4158 4159 1
4158 4161 1
4158 4707 1
4158 4772 1
4158 4773 1
4158 4776 1
4159 4160 1
4159 4161 1
4159 4162 1
4160 4161 1
4160 4162 1
4160 4163 1
4160 4165 1
4160 4231 1
4160 4234 1
4160 4235 1
4161 4162 1
4161 4230 1
4161 4231 1
4161 4234 1
4161 4773 1
4161 4776 1
4161 4777 1
4161 4848 1
4162 4163 1
4162 4165 1
4162 4711 1
4162 4776 1
4162 4777 1
4162 4780 1
4163 4164 1
4163 4165 1
4163 4166 1
4164 4165 1
4164 4166 1
4164 4167 1
4164 4169 1
4164 4235 1
4164 4238 1
4164 4239 1
4165 4166 1
4165 4234 1
4165 4235 1
4165 4238 1
4165 4777 1
4165 4780 1
4165 4781 1
4165 4852 1
4166 4167 1
4166 4169 1
4166 4715 1
4166 4780 1
4166 4781 1
4166 4784 1
4167 4168 1
4167 4169 1
4167 4170 1
4168 4169 1
4168 4170 1
4168 4239 1
4168 4242 1
4169 4170 1
4169 4238 1
4169 4239 1
4169 4242 1
4169 4781 1
4169 4784 1
4169 4785 1
4169 4856 1
4170 4719 1
4170 4784 1
4170 4785 1
4171 4172 1
4171 4173 1
4171 4174 1
4172 4173 1
4172 4174 1
4172 4175 1
4172 4177 1
4173 4174 1
4173 4788 1
4173 4789 1
4174 4175 1
4174 4177 1
4174 4723 1
4174 4788 1
4174 4789 1
4174 4792 1
4175 4176 1
4175 4177 1
4175 4178 1
4176 4177 1
4176 4178 1
4176 4179 1
4176 4181 1
4177 4178 1
4177 4789 1
4177 4792 1
4177 4793 1
4178 4179 1
4178 4181 1
4178 4727 1
4178 4792 1
4178 4793 1
4178 4796 1
4179 4180 1
4179 4181 1
4179 4182 1
4180 4181 1
4180 4182 1
4180 4183 1
4180 4185 1
4181 4182 1
4181 4793 1
4181 4796 1
4181 4797 1
4182 4183 1
4182 4185 1
4182 4731 1
4182 4796 1
4182 4797 1
4182 4800 1
4183 4184 1
4183 4185 1
4183 4186 1
4184 4185 1
4184 4186 1
4184 4187 1
4184 4189 1
4185 4186 1
4185 4797 1
4185 4800 1
4185 4801 1
4186 4187 1
4186 4189 1
4186 4735 1
4186 4800 1
4186 4801 1
4186 4804 1
4187 4188 1
4187 4189 1
4187 4190 1
4188 4189 1
4188 4190 1
4188 4191 1
4188 4193 1
4189 4190 1
4189 4801 1
4189 4804 1
4189 4805 1
4190 4191 1
4190 4193 1
4190 4739 1
4190 4804 1
4190 4805 1
4190 4808 1
4191 4192 1
4191 4193 1
4191 4194 1
4192 4193 1
4192 4194 1
4192 4195 1
4192 4197 1
4193 4194 1
4193 4805 1
4193 4808 1
4193 4809 1
4194 4195 1
4194 4197 1
4194 4743 1
4194 4808 1
4194 4809 1
4194 4812 1
4195 4196 1
4195 4197 1
4195 4198 1
4196 4197 1
4196 4198 1
4196 4199 1
4196 4201 1
4197 4198 1
4197 4809 1
4197 4812 1
4197 4813 1
4198 4199 1
4198 4201 1
4198 4747 1
4198 4812 1
4198 4813 1
4198 4816 1
4199 4200 1
4199 4201 1
4199 4202 1
4200 4201 1
4200 4202 1
4200 4203 1
4200 4205 1
4201 4202 1
4201 4813 1
4201 4816 1
4201 4817 1
4202 4203 1
4202 4205 1
4202 4751 1
4202 4816 1
4202 4817 1
4202 4820 1
4203 4204 1
4203 4205 1
4203 4206 1
4204 4205 1
4204 4206 1
4204 4207 1
4204 4209 1
4205 4206 1
4205 4817 1
4205 4820 1
4205 4821 1
4206 4207 1
4206 4209 1
4206 4753 1
4206 4820 1
4206 4821 1
4206 4824 1
4207 4208 1
4207 4209 1
4207 4210 1
4208 4209 1
4208 4210 1
4208 4211 1
4208 4213 1
4209 4210 1
4209 4821 1
4209 4824 1
4209 4825 1
4210 4211 1
4210 4213 1
4210 4755 1
4210 4824 1
4210 4825 1
4210 4828 1
4211 4212 1
4211 4213 1
4211 4214 1
4212 4213 1
4212 4214 1
4212 4215 1
4212 4217 1
4213 4214 1
4213 4825 1
4213 4828 1
4213 4829 1
4214 4215 1
4214 4217 1
4214 4757 1
4214 4828 1
4214 4829 1
4214 4832 1
4215 4216 1
4215 4217 1
4215 4218 1
4216 4217 1
4216 4218 1
4216 4219 1
4216 4221 1
4217 4218 1
4217 4829 1
4217 4832 1
4217 4833 1
4218 4219 1
4218 4221 1
4218 4761 1
4218 4832 1
4218 4833 1
4218 4836 1
4219 4220 1
4219 4221 1
4219 4222 1
4220 4221 1
4220 4222 1
4220 4223 1
4220 4225 1
4221 4222 1
4221 4833 1
4221 4836 1
4221 4837 1
4222 4223 1
4222 4225 1
4222 4765 1
4222 4836 1
4222 4837 1
4222 4840 1
4223 4224 1
4223 4225 1
4223 4226 1
4224 4225 1
4224 4226 1
4224 4227 1
4224 4229 1
4225 4226 1
4225 4837 1
4225 4840 1
4225 4841 1
4226 4227 1
4226 4229 1
4226 4769 1
4226 4840 1
4226 4841 1
4226 4844 1
4227 4228 1
4227 4229 1
4227 4230 1
4228 4229 1
4228 4230 1
4228 4231 1
4228 4233 1
4229 4230 1
4229 4841 1
4229 4844 1
4229 4845 1
4230 4231 1
4230 4233 1
4230 4773 1
4230 4844 1
4230 4845 1
4230 4848 1
4231 4232 1
4231 4233 1
4231 4234 1
4232 4233 1
4232 4234 1
4232 4235 1
4232 4237 1
4233 4234 1
4233 4845 1
4233 4848 1
4233 4849 1
4234 4235 1
4234 4237 1
4234 4777 1
4234 4848 1
4234 4849 1
4234 4852 1
4235 4236 1
4235 4237 1
4235 4238 1
4236 4237 1
4236 4238 1
4236 4239 1
4236 4241 1
4237 4238 1
4237 4849 1
4237 4852 1
4237 4853 1
4238 4239 1
4238 4241 1
4238 4781 1
4238 4852 1
4238 4853 1
4238 4856 1
4239 4240 1
4239 4241 1
4239 4242 1
4240 4241 1
4240 4242 1
4241 4242 1
4241 4853 1
4241 4856 1
4241 4857 1
4242 4785 1
4242 4856 1
4242 4857 1
4243 4244 1
4243 4245 1
4243 4246 1
4244 4245 1
4244 4246 1
4244 4247 1
4244 4249 1
4244 4315 1
4244 4318 1
4244 4319 1
4245 4246 1
4245 4315 1
4245 4318 1
4245 4860 1
4245 4861 1
4245 4932 1
4246 4247 1
4246 4249 1
4246 4860 1
4246 4861 1
4246 4864 1
4247 4248 1
4247 4249 1
4247 4250 1
4248 4249 1
4248 4250 1
4248 4251 1
4248 4253 1
4248 4319 1
4248 4322 1
4248 4323 1
4249 4250 1
4249 4318 1
4249 4319 1
4249 4322 1
4249 4861 1
4249 4864 1
4249 4865 1
4249 4936 1
4250 4251 1
4250 4253 1
4250 4864 1
4250 4865 1
4250 4868 1
4251 4252 1
4251 4253 1
4251 4254 1
4252 4253 1
4252 4254 1
4252 4255 1
4252 4257 1
4252 4323 1
4252 4326 1
4252 4327 1
4253 4254 1
4253 4322 1
4253 4323 1
4253 4326 1
4253 4865 1
4253 4868 1
4253 4869 1
4253 4940 1
4254 4255 1
4254 4257 1
4254 4868 1
4254 4869 1
4254 4872 1
4255 4256 1
4255 4257 1
4255 4258 1
4256 4257 1
4256 4258 1
4256 4259 1
4256 4261 1
4256 4327 1
4256 4330 1
4256 4331 1
4257 4258 1
4257 4326 1
4257 4327 1
4257 4330 1
4257 4869 1
4257 4872 1
4257 4873 1
4257 4944 1
4258 4259 1
4258 4261 1
4258 4872 1
4258 4873 1
4258 4876 1
4259 4260 1
4259 4261 1
4259 4262 1
4260 4261 1
4260 4262 1
4260 4263 1
4260 4265 1
4260 4331 1
4260 4334 1
4260 4335 1
4261 4262 1
4261 4330 1
4261 4331 1
4261 4334 1
4261 4873 1
4261 4876 1
4261 4877 1
4261 4948 1
4262 4263 1
4262 4265 1
4262 4876 1
4262 4877 1
4262 4880 1
4263 4264 1
4263 4265 1
4263 4266 1
4264 4265 1
4264 4266 1
4264 4267 1
4264 4269 1
4264 4335 1
4264 4338 1
4264 4339 1
4265 4266 1
4265 4334 1
4265 4335 1
4265 4338 1
4265 4877 1
4265 4880 1
4265 4881 1
4265 4952 1
4266 4267 1
4266 4269 1
4266 4880 1
4266 4881 1
4266 4884 1
4267 4268 1
4267 4269 1
4267 4270 1
4268 4269 1
4268 4270 1
4268 4271 1
4268 4273 1
4268 4339 1
4268 4342 1
4268 4343 1
4269 4270 1
4269 4338 1
4269 4339 1
4269 4342 1
4269 4881 1
4269 4884 1
4269 4885 1
4269 4956 1
4270 4271 1
4270 4273 1
4270 4884 1
4270 4885 1
4270 4888 1
4271 4272 1
4271 4273 1
4271 4274 1
4272 4273 1
4272 4274 1
4272 4275 1
4272 4277 1
4272 4343 1
4272 4346 1
4272 4347 1
4273 4274 1
4273 4342 1
4273 4343 1
4273 4346 1
4273 4885 1
4273 4888 1
4273 4889 1
4273 4960 1
4274 4275 1
4274 4277 1
4274 4888 1
4274 4889 1
4274 4892 1
4275 4276 1
4275 4277 1
4275 4278 1
4276 4277 1
4276 4278 1
4276 4279 1
4276 4281 1
4276 4347 1
4276 4349 1
4276 4350 1
4277 4278 1
4277 4346 1
4277 4347 1
4277 4349 1
4277 4889 1
4277 4892 1
4277 4893 1
4277 4964 1
4278 4279 1
4278 4281 1
4278 4892 1
4278 4893 1
4278 4896 1
4279 4280 1
4279 4281 1
4279 4282 1
4280 4281 1
4280 4282 1
4280 4283 1
4280 4285 1
4280 4350 1
4280 4351 1
4280 4352 1
4281 4282 1
4281 4349 1
4281 4350 1
4281 4351 1
4281 4893 1
4281 4896 1
4281 4897 1
4281 4967 1
4282 4283 1
4282 4285 1
4282 4896 1
4282 4897 1
4282 4900 1
4283 4284 1
4283 4285 1
4283 4286 1
4284 4285 1
4284 4286 1
4284 4287 1
4284 4289 1
4284 4352 1
4284 4355 1
4284 4356 1
4285 4286 1
4285 4351 1
4285 4352 1
4285 4355 1
4285 4897 1
4285 4900 1
4285 4901 1
4285 4969 1
4286 4287 1
4286 4289 1
4286 4900 1
4286 4901 1
4286 4904 1
4287 4288 1
4287 4289 1
4287 4290 1
4288 4289 1
4288 4290 1
4288 4291 1
4288 4293 1
4288 4356 1
4288 4359 1
4288 4360 1
4289 4290 1
4289 4355 1
4289 4356 1
4289 4359 1
4289 4901 1
4289 4904 1
4289 4905 1
4289 4973 1
4290 4291 1
4290 4293 1
4290 4904 1
4290 4905 1
4290 4908 1
4291 4292 1
4291 4293 1
4291 4294 1
4292 4293 1
4292 4294 1
4292 4295 1
4292 4297 1
4292 4360 1
4292 4363 1
4292 4364 1
4293 4294 1
4293 4359 1
4293 4360 1
4293 4363 1
4293 4905 1
4293 4908 1
4293 4909 1
4293 4977 1
4294 4295 1
4294 4297 1
4294 4908 1
4294 4909 1
4294 4912 1
4295 4296 1
4295 4297 1
4295 4298 1
4296 4297 1
4296 4298 1
4296 4299 1
4296 4301 1
4296 4364 1
4296 4367 1
4296 4368 1
4297 4298 1
4297 4363 1
4297 4364 1
4297 4367 1
4297 4909 1
4297 4912 1
4297 4913 1
4297 4981 1
4298 4299 1
4298 4301 1
4298 4912 1
4298 4913 1
4298 4916 1
4299 4300 1
4299 4301 1
4299 4302 1
4300 4301 1
4300 4302 1
4300 4303 1
4300 4305 1
4300 4368 1
4300 4371 1
4300 4372 1
4301 4302 1
4301 4367 1
4301 4368 1
4301 4371 1
4301 4913 1
4301 4916 1
4301 4917 1
4301 4985 1
4302 4303 1
4302 4305 1
4302 4916 1
4302 4917 1
4302 4920 1
4303 4304 1
4303 4305 1
4303 4306 1
4304 4305 1
4304 4306 1
4304 4307 1
4304 4309 1
4304 4372 1
4304 4375 1
4304 4376 1
4305 4306 1
4305 4371 1
4305 4372 1
4305 4375 1
4305 4917 1
4305 4920 1
4305 4921 1
4305 4989 1
4306 4307 1
4306 4309 1
4306 4920 1
4306 4921 1
4306 4924 1
4307 4308 1
4307 4309 1
4307 4310 1
4308 4309 1
4308 4310 1
4308 4311 1
4308 4313 1
4308 4376 1
4308 4379 1
4308 4380 1
4309 4310 1
4309 4375 1
4309 4376 1
4309 4379 1
4309 4921 1
4309 4924 1
4309 4925 1
4309 4993 1
4310 4311 1
4310 4313 1
4310 4924 1
4310 4925 1
4310 4928 1
4311 4312 1
4311 4313 1
4311 4314 1
4312 4313 1
4312 4314 1
4312 4380 1
4312 4383 1
4313 4314 1
4313 4379 1
4313 4380 1
4313 4383 1
4313 4925 1
4313 4928 1
4313 4929 1
4313 4997 1
4314 4928 1
4314 4929 1
4315 4316 1
4315 4317 1
4315 4318 1
4316 4317 1
4316 4318 1
4316 4319 1
4316 4321 1
4316 4384 1
4316 4387 1
4316 4388 1
4317 4318 1
4317 4384 1
4317 4387 1
4317 4932 1
4317 4933 1
4317 5001 1
4318 4319 1
4318 4321 1
4318 4861 1
4318 4932 1
4318 4933 1
4318 4936 1
4319 4320 1
4319 4321 1
4319 4322 1
4320 4321 1
4320 4322 1
4320 4323 1
4320 4325 1
4320 4388 1
4320 4391 1
4320 4392 1
4321 4322 1
4321 4387 1
4321 4388 1
4321 4391 1
4321 4933 1
4321 4936 1
4321 4937 1
4321 5005 1
4322 4323 1
4322 4325 1
4322 4865 1
4322 4936 1
4322 4937 1
4322 4940 1
4323 4324 1
4323 4325 1
4323 4326 1
4324 4325 1
4324 4326 1
4324 4327 1
4324 4329 1
4324 4392 1
4324 4395 1
4324 4396 1
4325 4326 1
4325 4391 1
4325 4392 1
4325 4395 1
4325 4937 1
4325 4940 1
4325 4941 1
4325 5009 1
4326 4327 1
4326 4329 1
4326 4869 1
4326 4940 1
4326 4941 1
4326 4944 1
4327 4328 1
4327 4329 1
4327 4330 1
4328 4329 1
4328 4330 1
4328 4331 1
4328 4333 1
4328 4396 1
4328 4399 1
4328 4400 1
4329 4330 1
4329 4395 1
4329 4396 1
4329 4399 1
4329 4941 1
4329 4944 1
4329 4945 1
4329 5013 1
4330 4331 1
4330 4333 1
4330 4873 1
4330 4944 1
4330 4945 1
4330 4948 1
4331 4332 1
4331 4333 1
4331 4334 1
4332 4333 1
4332 4334 1
4332 4335 1
4332 4337 1
4332 4400 1
4332 4403 1
4332 4404 1
4333 4334 1
4333 4399 1
4333 4400 1
4333 4403 1
4333 4945 1
4333 4948 1
4333 4949 1
4333 5017 1
4334 4335 1
4334 4337 1
4334 4877 1
4334 4948 1
4334 4949 1
4334 4952 1
4335 4336 1
4335 4337 1
4335 4338 1
4336 4337 1
4336 4338 1
4336 4339 1
4336 4341 1
4336 4404 1
4336 4406 1
4336 4407 1
4337 4338 1
4337 4403 1
4337 4404 1
4337 4406 1
4337 4949 1
4337 4952 1
4337 4953 1
4337 5021 1
4338 4339 1
4338 4341 1
4338 4881 1
4338 4952 1
4338 4953 1
4338 4956 1
4339 4340 1
4339 4341 1
4339 4342 1
4340 4341 1
4340 4342 1
4340 4343 1
4340 4345 1
4340 4407 1
4341 4342 1
4341 4406 1
4341 4407 1
4341 4953 1
4341 4956 1
4341 4957 1
4341 5024 1
4342 4343 1
4342 4345 1
4342 4885 1
4342 4956 1
4342 4957 1
4342 4960 1
4343 4344 1
4343 4345 1
4343 4346 1
4344 4345 1
4344 4346 1
4344 4347 1
4344 4348 1
4345 4346 1
4345 4957 1
4345 4960 1
4345 4961 1
4346 4347 1
4346 4348 1
4346 4889 1
4346 4960 1
4346 4961 1
4346 4964 1
4347 4348 1
4347 4349 1
4348 4349 1
4348 4961 1
4348 4964 1
4349 4350 1
4349 4893 1
4349 4964 1
4349 4967 1
4350 4351 1
4351 4352 1
4351 4354 1
4351 4897 1
4351 4967 1
4351 4969 1
4352 4353 1
4352 4354 1
4352 4355 1
4353 4354 1
4353 4355 1
4353 4356 1
4353 4358 1
4354 4355 1
4354 4969 1
4354 4970 1
4355 4356 1
4355 4358 1
4355 4901 1
4355 4969 1
4355 4970 1
4355 4973 1
4356 4357 1
4356 4358 1
4356 4359 1
4357 4358 1
4357 4359 1
4357 4360 1
4357 4362 1
4357 4408 1
4358 4359 1
4358 4970 1
4358 4973 1
4358 4974 1
4359 4360 1
4359 4362 1
4359 4905 1
4359 4973 1
4359 4974 1
4359 4977 1
4360 4361 1
4360 4362 1
4360 4363 1
4361 4362 1
4361 4363 1
4361 4364 1
4361 4366 1
4361 4408 1
4361 4409 1
4361 4410 1
4362 4363 1
4362 4408 1
4362 4409 1
4362 4974 1
4362 4977 1
4362 4978 1
4362 5025 1
4363 4364 1
4363 4366 1
4363 4909 1
4363 4977 1
4363 4978 1
4363 4981 1
4364 4365 1
4364 4366 1
4364 4367 1
4365 4366 1
4365 4367 1
4365 4368 1
4365 4370 1
4365 4410 1
4365 4413 1
4365 4414 1
4366 4367 1
4366 4409 1
4366 4410 1
4366 4413 1
4366 4978 1
4366 4981 1
4366 4982 1
4366 5027 1
4367 4368 1
4367 4370 1
4367 4913 1
4367 4981 1
4367 4982 1
4367 4985 1
4368 4369 1
4368 4370 1
4368 4371 1
4369 4370 1
4369 4371 1
4369 4372 1
4369 4374 1
4369 4414 1
4369 4417 1
4369 4418 1
4370 4371 1
4370 4413 1
4370 4414 1
4370 4417 1
4370 4982 1
4370 4985 1
4370 4986 1
4370 5031 1
4371 4372 1
4371 4374 1
4371 4917 1
4371 4985 1
4371 4986 1
4371 4989 1
4372 4373 1
4372 4374 1
4372 4375 1
4373 4374 1
4373 4375 1
4373 4376 1
4373 4378 1
4373 4418 1
4373 4421 1
4373 4422 1
4374 4375 1
4374 4417 1
4374 4418 1
4374 4421 1
4374 4986 1
4374 4989 1
4374 4990 1
4374 5035 1
4375 4376 1
4375 4378 1
4375 4921 1
4375 4989 1
4375 4990 1
4375 4993 1
4376 4377 1
4376 4378 1
4376 4379 1
4377 4378 1
4377 4379 1
4377 4380 1
4377 4382 1
4377 4422 1
4377 4425 1
4377 4426 1
4378 4379 1
4378 4421 1
4378 4422 1
4378 4425 1
4378 4990 1
4378 4993 1
4378 4994 1
4378 5039 1
4379 4380 1
4379 4382 1
4379 4925 1
4379 4993 1
4379 4994 1
4379 4997 1
4380 4381 1
4380 4382 1
4380 4383 1
4381 4382 1
4381 4383 1
4381 4426 1
4381 4429 1
4382 4383 1
4382 4425 1
4382 4426 1
4382 4429 1
4382 4994 1
4382 4997 1
4382 4998 1
4382 5043 1
4383 4929 1
4383 4997 1
4383 4998 1
4384 4385 1
4384 4386 1
4384 4387 1
4385 4386 1
4385 4387 1
4385 4388 1
4385 4390 1
4385 4430 1
4385 4433 1
4385 4434 1
4386 4387 1
4386 4430 1
4386 4433 1
4386 5001 1
4386 5002 1
4386 5047 1
4387 4388 1
4387 4390 1
4387 4933 1
4387 5001 1
4387 5002 1
4387 5005 1
4388 4389 1
4388 4390 1
4388 4391 1
4389 4390 1
4389 4391 1
4389 4392 1
4389 4394 1
4389 4434 1
4389 4437 1
4389 4438 1
4390 4391 1
4390 4433 1
4390 4434 1
4390 4437 1
4390 5002 1
4390 5005 1
4390 5006 1
4390 5051 1
4391 4392 1
4391 4394 1
4391 4937 1
4391 5005 1
4391 5006 1
4391 5009 1
4392 4393 1
4392 4394 1
4392 4395 1
4393 4394 1
4393 4395 1
4393 4396 1
4393 4398 1
4393 4438 1
4393 4441 1
4393 4442 1
4394 4395 1
4394 4437 1
4394 4438 1
4394 4441 1
4394 5006 1
4394 5009 1
4394 5010 1
4394 5055 1
4395 4396 1
4395 4398 1
4395 4941 1
4395 5009 1
4395 5010 1
4395 5013 1
4396 4397 1
4396 4398 1
4396 4399 1
4397 4398 1
4397 4399 1
4397 4400 1
4397 4402 1
4397 4442 1
4397 4445 1
4397 4446 1
4398 4399 1
4398 4441 1
4398 4442 1
4398 4445 1
4398 5010 1
4398 5013 1
4398 5014 1
4398 5059 1
4399 4400 1
4399 4402 1
4399 4945 1
4399 5013 1
4399 5014 1
4399 5017 1
4400 4401 1
4400 4402 1
4400 4403 1
4401 4402 1
4401 4403 1
4401 4404 1
4401 4405 1
4401 4446 1
4402 4403 1
4402 4445 1
4402 4446 1
4402 5014 1
4402 5017 1
4402 5018 1
4402 5063 1
4403 4404 1
4403 4405 1
4403 4949 1
4403 5017 1
4403 5018 1
4403 5021 1
4404 4405 1
4404 4406 1
4405 4406 1
4405 5018 1
4405 5021 1
4406 4407 1
4406 4953 1
4406 5021 1
4406 5024 1
4408 4409 1
4409 4410 1
4409 4412 1
4409 4978 1
4409 5025 1
4409 5027 1
4410 4411 1
4410 4412 1
4410 4413 1
4411 4412 1
4411 4413 1
4411 4414 1
4411 4416 1
4411 4447 1
4411 4448 1
4412 4413 1
4412 4447 1
4412 5027 1
4412 5028 1
4413 4414 1
4413 4416 1
4413 4982 1
4413 5027 1
4413 5028 1
4413 5031 1
4414 4415 1
4414 4416 1
4414 4417 1
4415 4416 1
4415 4417 1
4415 4418 1
4415 4420 1
4415 4448 1
4415 4451 1
4415 4452 1
4416 4417 1
4416 4447 1
4416 4448 1
4416 4451 1
4416 5028 1
4416 5031 1
4416 5032 1
4416 5065 1
4417 4418 1
4417 4420 1
4417 4986 1
4417 5031 1
4417 5032 1
4417 5035 1
4418 4419 1
4418 4420 1
4418 4421 1
4419 4420 1
4419 4421 1
4419 4422 1
4419 4424 1
4419 4452 1
4419 4455 1
4419 4456 1
4420 4421 1
4420 4451 1
4420 4452 1
4420 4455 1
4420 5032 1
4420 5035 1
4420 5036 1
4420 5069 1
4421 4422 1
4421 4424 1
4421 4990 1
4421 5035 1
4421 5036 1
4421 5039 1
4422 4423 1
4422 4424 1
4422 4425 1
4423 4424 1
4423 4425 1
4423 4426 1
4423 4428 1
4423 4456 1
4423 4459 1
4423 4460 1
4424 4425 1
4424 4455 1
4424 4456 1
4424 4459 1
4424 5036 1
4424 5039 1
4424 5040 1
4424 5073 1
4425 4426 1
4425 4428 1
4425 4994 1
4425 5039 1
4425 5040 1
4425 5043 1
4426 4427 1
4426 4428 1
4426 4429 1
4427 4428 1
4427 4429 1
4427 4460 1
4427 4463 1
4428 4429 1
4428 4459 1
4428 4460 1
4428 4463 1
4428 5040 1
4428 5043 1
4428 5044 1
4428 5077 1
4429 4998 1
4429 5043 1
4429 5044 1
4430 4431 1
4430 4432 1
4430 4433 1
4431 4432 1
4431 4433 1
4431 4434 1
4431 4436 1
4431 4464 1
4431 4467 1
4431 4468 1
4432 4433 1
4432 4464 1
4432 4467 1
4432 5047 1
4432 5048 1
4432 5081 1
4433 4434 1
4433 4436 1
4433 5002 1
4433 5047 1
4433 5048 1
4433 5051 1
4434 4435 1
4434 4436 1
4434 4437 1
4435 4436 1
4435 4437 1
4435 4438 1
4435 4440 1
4435 4468 1
4435 4471 1
4435 4472 1
4436 4437 1
4436 4467 1
4436 4468 1
4436 4471 1
4436 5048 1
4436 5051 1
4436 5052 1
4436 5085 1
4437 4438 1
4437 4440 1
4437 5006 1
4437 5051 1
4437 5052 1
4437 5055 1
4438 4439 1
4438 4440 1
4438 4441 1
4439 4440 1
4439 4441 1
4439 4442 1
4439 4444 1
4439 4472 1
4439 4475 1
4439 4476 1
4440 4441 1
4440 4471 1
4440 4472 1
4440 4475 1
4440 5052 1
4440 5055 1
4440 5056 1
4440 5089 1
4441 4442 1
4441 4444 1
4441 5010 1
4441 5055 1
4441 5056 1
4441 5059 1
4442 4443 1
4442 4444 1
4442 4445 1
4443 4444 1
4443 4445 1
4443 4446 1
4443 4476 1
4444 4445 1
4444 4475 1
4444 4476 1
4444 5056 1
4444 5059 1
4444 5060 1
4444 5093 1
4445 4446 1
4445 5014 1
4445 5059 1
4445 5060 1
4445 5063 1
4447 4448 1
4447 4450 1
4447 5028 1
4447 5065 1
4448 4449 1
4448 4450 1
4448 4451 1
4449 4450 1
4449 4451 1
4449 4452 1
4449 4454 1
4449 4477 1
4449 4478 1
4450 4451 1
4450 4477 1
4450 5065 1
4450 5066 1
4451 4452 1
4451 4454 1
4451 5032 1
4451 5065 1
4451 5066 1
4451 5069 1
4452 4453 1
4452 4454 1
4452 4455 1
4453 4454 1
4453 4455 1
4453 4456 1
4453 4458 1
4453 4478 1
4453 4481 1
4453 4482 1
4454 4455 1
4454 4477 1
4454 4478 1
4454 4481 1
4454 5066 1
4454 5069 1
4454 5070 1
4454 5095 1
4455 4456 1
4455 4458 1
4455 5036 1
4455 5069 1
4455 5070 1
4455 5073 1
4456 4457 1
4456 4458 1
4456 4459 1
4457 4458 1
4457 4459 1
4457 4460 1
4457 4462 1
4457 4482 1
4457 4485 1
4457 4486 1
4458 4459 1
4458 4481 1
4458 4482 1
4458 4485 1
4458 5070 1
4458 5073 1
4458 5074 1
4458 5099 1
4459 4460 1
4459 4462 1
4459 5040 1
4459 5073 1
4459 5074 1
4459 5077 1
4460 4461 1
4460 4462 1
4460 4463 1
4461 4462 1
4461 4463 1
4461 4486 1
4461 4489 1
4462 4463 1
4462 4485 1
4462 4486 1
4462 4489 1
4462 5074 1
4462 5077 1
4462 5078 1
4462 5103 1
4463 5044 1
4463 5077 1
4463 5078 1
4464 4465 1
4464 4466 1
4464 4467 1
4465 4466 1
4465 4467 1
4465 4468 1
4465 4470 1
4465 4490 1
4465 4493 1
4465 4494 1
4466 4467 1
4466 4490 1
4466 4493 1
4466 5081 1
4466 5082 1
4466 5107 1
4467 4468 1
4467 4470 1
4467 5048 1
4467 5081 1
4467 5082 1
4467 5085 1
4468 4469 1
4468 4470 1
4468 4471 1
4469 4470 1
4469 4471 1
4469 4472 1
4469 4474 1
4469 4494 1
4469 4497 1
4469 4498 1
4470 4471 1
4470 4493 1
4470 4494 1
4470 4497 1
4470 5082 1
4470 5085 1
4470 5086 1
4470 5111 1
4471 4472 1
4471 4474 1
4471 5052 1
4471 5085 1
4471 5086 1
4471 5089 1
4472 4473 1
4472 4474 1
4472 4475 1
4473 4474 1
4473 4475 1
4473 4476 1
4473 4498 1
4473 4500 1
4474 4475 1
4474 4497 1
4474 4498 1
4474 4500 1
4474 5086 1
4474 5089 1
4474 5090 1
4474 5115 1
4475 4476 1
4475 5056 1
4475 5089 1
4475 5090 1
4475 5093 1
4477 4478 1
4477 4480 1
4477 5066 1
4477 5095 1
4478 4479 1
4478 4480 1
4478 4481 1
4479 4480 1
4479 4481 1
4479 4482 1
4479 4484 1
4479 4502 1
4479 4503 1
4480 4481 1
4480 4502 1
4480 5095 1
4480 5096 1
4481 4482 1
4481 4484 1
4481 5070 1
4481 5095 1
4481 5096 1
4481 5099 1
4482 4483 1
4482 4484 1
4482 4485 1
4483 4484 1
4483 4485 1
4483 4486 1
4483 4488 1
4483 4503 1
4483 4506 1
4483 4507 1
4484 4485 1
4484 4502 1
4484 4503 1
4484 4506 1
4484 5096 1
4484 5099 1
4484 5100 1
4484 5120 1
4485 4486 1
4485 4488 1
4485 5074 1
4485 5099 1
4485 5100 1
4485 5103 1
4486 4487 1
4486 4488 1
4486 4489 1
4487 4488 1
4487 4489 1
4487 4507 1
4487 4510 1
4488 4489 1
4488 4506 1
4488 4507 1
4488 4510 1
4488 5100 1
4488 5103 1
4488 5104 1
4488 5124 1
4489 5078 1
4489 5103 1
4489 5104 1
4490 4491 1
4490 4492 1
4490 4493 1
4491 4492 1
4491 4493 1
4491 4494 1
4491 4496 1
4491 4511 1
4491 4514 1
4491 4515 1
4492 4493 1
4492 4511 1
4492 4514 1
4492 5107 1
4492 5108 1
4492 5128 1
4493 4494 1
4493 4496 1
4493 5082 1
4493 5107 1
4493 5108 1
4493 5111 1
4494 4495 1
4494 4496 1
4494 4497 1
4495 4496 1
4495 4497 1
4495 4498 1
4495 4499 1
4495 4515 1
4495 4518 1
4495 4519 1
4496 4497 1
4496 4514 1
4496 4515 1
4496 4518 1
4496 5108 1
4496 5111 1
4496 5112 1
4496 5132 1
4497 4498 1
4497 4499 1
4497 5086 1
4497 5111 1
4497 5112 1
4497 5115 1
4498 4499 1
4498 4500 1
4499 4500 1
4499 4518 1
4499 4519 1
4499 5112 1
4499 5115 1
4499 5136 1
4500 5090 1
4500 5115 1
4501 4502 1
4501 4503 1
4501 4505 1
4501 4520 1
4502 4503 1
4502 4505 1
4502 5096 1
4502 5118 1
4502 5120 1
4503 4504 1
4503 4505 1
4503 4506 1
4504 4505 1
4504 4506 1
4504 4507 1
4504 4509 1
4504 4520 1
4504 4523 1
4504 4524 1
4505 4506 1
4505 4520 1
4505 4523 1
4505 5118 1
4505 5120 1
4505 5121 1
4505 5137 1
4506 4507 1
4506 4509 1
4506 5100 1
4506 5120 1
4506 5121 1
4506 5124 1
4507 4508 1
4507 4509 1
4507 4510 1
4508 4509 1
4508 4510 1
4508 4524 1
4508 4527 1
4509 4510 1
4509 4523 1
4509 4524 1
4509 4527 1
4509 5121 1
4509 5124 1
4509 5125 1
4509 5141 1
4510 5104 1
4510 5124 1
4510 5125 1
4511 4512 1
4511 4513 1
4511 4514 1
4512 4513 1
4512 4514 1
4512 4515 1
4512 4517 1
4512 4528 1
4512 4531 1
4512 4532 1
4513 4514 1
4513 4528 1
4513 4531 1
4513 5128 1
4513 5129 1
4513 5145 1
4514 4515 1
4514 4517 1
4514 5108 1
4514 5128 1
4514 5129 1
4514 5132 1
4515 4516 1
4515 4517 1
4515 4518 1
4516 4517 1
4516 4518 1
4516 4519 1
4516 4532 1
4516 4535 1
4517 4518 1
4517 4531 1
4517 4532 1
4517 4535 1
4517 5129 1
4517 5132 1
4517 5133 1
4517 5149 1
4518 4519 1
4518 5112 1
4518 5132 1
4518 5133 1
4518 5136 1
4520 4521 1
4520 4522 1
4520 4523 1
4521 4522 1
4521 4523 1
4521 4524 1
4521 4526 1
4521 4536 1
4521 4538 1
4521 4539 1
4522 4523 1
4522 4536 1
4522 4538 1
4522 5137 1
4522 5138 1
4522 5153 1
4523 4524 1
4523 4526 1
4523 5121 1
4523 5137 1
4523 5138 1
4523 5141 1
4524 4525 1
4524 4526 1
4524 4527 1
4525 4526 1
4525 4527 1
4525 4539 1
4525 4542 1
4526 4527 1
4526 4538 1
4526 4539 1
4526 4542 1
4526 5138 1
4526 5141 1
4526 5142 1
4526 5156 1
4527 5125 1
4527 5141 1
4527 5142 1
4528 4529 1
4528 4530 1
4528 4531 1
4529 4530 1
4529 4531 1
4529 4532 1
4529 4534 1
4529 4543 1
4529 4546 1
4529 4547 1
4530 4531 1
4530 4543 1
4530 4546 1
4530 5145 1
4530 5146 1
4530 5160 1
4531 4532 1
4531 4534 1
4531 5129 1
4531 5145 1
4531 5146 1
4531 5149 1
4532 4533 1
4532 4534 1
4532 4535 1
4533 4534 1
4533 4535 1
4533 4547 1
4533 4549 1
4534 4535 1
4534 4546 1
4534 4547 1
4534 4549 1
4534 5146 1
4534 5149 1
4534 5150 1
4534 5164 1
4535 5133 1
4535 5149 1
4535 5150 1
4536 4537 1
4536 4538 1
4537 4538 1
4537 4539 1
4537 4541 1
4537 4551 1
4537 4552 1
4538 4539 1
4538 4541 1
4538 5138 1
4538 5153 1
4538 5154 1
4538 5156 1
4539 4540 1
4539 4541 1
4539 4542 1
4540 4541 1
4540 4542 1
4540 4552 1
4540 4555 1
4541 4542 1
4541 4551 1
4541 4552 1
4541 4555 1
4541 5154 1
4541 5156 1
4541 5157 1
4541 5169 1
4542 5142 1
4542 5156 1
4542 5157 1
4543 4544 1
4543 4545 1
4543 4546 1
4544 4545 1
4544 4546 1
4544 4547 1
4544 4548 1
4544 4556 1
4544 4559 1
4544 4560 1
4545 4546 1
4545 4556 1
4545 4559 1
4545 5160 1
4545 5161 1
4545 5173 1
4546 4547 1
4546 4548 1
4546 5146 1
4546 5160 1
4546 5161 1
4546 5164 1
4547 4548 1
4547 4549 1
4548 4549 1
4548 4559 1
4548 4560 1
4548 5161 1
4548 5164 1
4548 5177 1
4549 5150 1
4549 5164 1
4550 4551 1
4550 4552 1
4550 4554 1
4550 4563 1
4550 4564 1
4551 4552 1
4551 4554 1
4551 5154 1
4551 5167 1
4551 5169 1
4552 4553 1
4552 4554 1
4552 4555 1
4553 4554 1
4553 4555 1
4553 4564 1
4553 4567 1
4554 4555 1
4554 4563 1
4554 4564 1
4554 4567 1
4554 5167 1
4554 5169 1
4554 5170 1
4554 5181 1
4555 5157 1
4555 5169 1
4555 5170 1
4556 4557 1
4556 4558 1
4556 4559 1
4557 4558 1
4557 4559 1
4557 4560 1
4557 4561 1
4557 4568 1
4557 4571 1
4557 4572 1
4558 4559 1
4558 4568 1
4558 4571 1
4558 5173 1
4558 5174 1
4558 5185 1
4559 4560 1
4559 4561 1
4559 5161 1
4559 5173 1
4559 5174 1
4559 5177 1
4560 4561 1
4561 4571 1
4561 4572 1
4561 4575 1
4561 5174 1
4561 5177 1
4561 5189 1
4562 4563 1
4562 4564 1
4562 4566 1
4562 4578 1
4562 4579 1
4563 4564 1
4563 4566 1
4563 5167 1
4563 5179 1
4563 5181 1
4564 4565 1
4564 4566 1
4564 4567 1
4565 4566 1
4565 4567 1
4565 4579 1
4565 4582 1
4566 4567 1
4566 4578 1
4566 4579 1
4566 4582 1
4566 5179 1
4566 5181 1
4566 5182 1
4566 5196 1
4567 5170 1
4567 5181 1
4567 5182 1
4568 4569 1
4568 4570 1
4568 4571 1
4569 4570 1
4569 4571 1
4569 4572 1
4569 4574 1
4569 4583 1
4569 4586 1
4569 4587 1
4570 4571 1
4570 4583 1
4570 4586 1
4570 5185 1
4570 5186 1
4570 5200 1
4571 4572 1
4571 4574 1
4571 5174 1
4571 5185 1
4571 5186 1
4571 5189 1
4572 4573 1
4572 4574 1
4572 4575 1
4573 4574 1
4573 4575 1
4573 4587 1
4573 4590 1
4574 4575 1
4574 4586 1
4574 4587 1
4574 4590 1
4574 5186 1
4574 5189 1
4574 5190 1
4574 5204 1
4575 5189 1
4575 5190 1
4576 4577 1
4576 4578 1
4576 4579 1
4576 4581 1
4576 4591 1
4576 4594 1
4576 4595 1
4577 4578 1
4577 4591 1
4577 4594 1
4577 5193 1
4577 5208 1
4578 4579 1
4578 4581 1
4578 5179 1
4578 5193 1
4578 5196 1
4579 4580 1
4579 4581 1
4579 4582 1
4580 4581 1
4580 4582 1
4580 4595 1
4580 4598 1
4581 4582 1
4581 4594 1
4581 4595 1
4581 4598 1
4581 5193 1
4581 5196 1
4581 5197 1
4581 5212 1
4582 5182 1
4582 5196 1
4582 5197 1
4583 4584 1
4583 4585 1
4583 4586 1
4584 4585 1
4584 4586 1
4584 4587 1
4584 4589 1
4584 4599 1
4584 4602 1
4584 4603 1
4585 4586 1
4585 4599 1
4585 4602 1
4585 5200 1
4585 5201 1
4585 5216 1
4586 4587 1
4586 4589 1
4586 5186 1
4586 5200 1
4586 5201 1
4586 5204 1
4587 4588 1
4587 4589 1
4587 4590 1
4588 4589 1
4588 4590 1
4588 4603 1
4588 4606 1
4588 4607 1
4589 4590 1
4589 4602 1
4589 4603 1
4589 4606 1
4589 5201 1
4589 5204 1
4589 5205 1
4589 5220 1
4590 5190 1
4590 5204 1
4590 5205 1
4591 4592 1
4591 4593 1
4591 4594 1
4592 4593 1
4592 4594 1
4592 4595 1
4592 4597 1
4592 4611 1
4592 4614 1
4592 4615 1
4593 4594 1
4593 4610 1
4593 4611 1
4593 4614 1
4593 5208 1
4593 5209 1
4593 5228 1
4594 4595 1
4594 4597 1
4594 5193 1
4594 5208 1
4594 5209 1
4594 5212 1
4595 4596 1
4595 4597 1
4595 4598 1
4596 4597 1
4596 4598 1
4596 4615 1
4596 4618 1
4597 4598 1
4597 4614 1
4597 4615 1
4597 4618 1
4597 5209 1
4597 5212 1
4597 5213 1
4597 5232 1
4598 5197 1
4598 5212 1
4598 5213 1
4599 4600 1
4599 4601 1
4599 4602 1
4600 4601 1
4600 4602 1
4600 4603 1
4600 4605 1
4600 4619 1
4600 4622 1
4600 4623 1
4601 4602 1
4601 4619 1
4601 4622 1
4601 5216 1
4601 5217 1
4601 5236 1
4602 4603 1
4602 4605 1
4602 5201 1
4602 5216 1
4602 5217 1
4602 5220 1
4603 4604 1
4603 4605 1
4603 4606 1
4604 4605 1
4604 4606 1
4604 4607 1
4604 4608 1
4604 4623 1
4604 4626 1
4604 4627 1
4605 4606 1
4605 4622 1
4605 4623 1
4605 4626 1
4605 5217 1
4605 5220 1
4605 5221 1
4605 5240 1
4606 4607 1
4606 4608 1
4606 5205 1
4606 5220 1
4606 5221 1
4606 5224 1
4607 4608 1
4608 4626 1
4608 4627 1
4608 4630 1
4608 5221 1
4608 5224 1
4608 5244 1
4609 4610 1
4609 4611 1
4609 4613 1
4609 4633 1
4609 4636 1
4609 4637 1
4610 4611 1
4610 4613 1
4610 5226 1
4610 5228 1
4611 4612 1
4611 4613 1
4611 4614 1
4612 4613 1
4612 4614 1
4612 4615 1
4612 4617 1
4612 4637 1
4612 4640 1
4612 4641 1
4613 4614 1
4613 4636 1
4613 4637 1
4613 4640 1
4613 5226 1
4613 5228 1
4613 5229 1
4613 5254 1
4614 4615 1
4614 4617 1
4614 5209 1
4614 5228 1
4614 5229 1
4614 5232 1
4615 4616 1
4615 4617 1
4615 4618 1
4616 4617 1
4616 4618 1
4616 4641 1
4616 4644 1
4617 4618 1
4617 4640 1
4617 4641 1
4617 4644 1
4617 5229 1
4617 5232 1
4617 5233 1
4617 5258 1
4618 5213 1
4618 5232 1
4618 5233 1
4619 4620 1
4619 4621 1
4619 4622 1
4620 4621 1
4620 4622 1
4620 4623 1
4620 4625 1
4620 4645 1
4620 4648 1
4620 4649 1
4621 4622 1
4621 4645 1
4621 4648 1
4621 5236 1
4621 5237 1
4621 5262 1
4622 4623 1
4622 4625 1
4622 5217 1
4622 5236 1
4622 5237 1
4622 5240 1
4623 4624 1
4623 4625 1
4623 4626 1
4624 4625 1
4624 4626 1
4624 4627 1
4624 4629 1
4624 4649 1
4624 4652 1
4624 4653 1
4625 4626 1
4625 4648 1
4625 4649 1
4625 4652 1
4625 5237 1
4625 5240 1
4625 5241 1
4625 5266 1
4626 4627 1
4626 4629 1
4626 5221 1
4626 5240 1
4626 5241 1
4626 5244 1
4627 4628 1
4627 4629 1
4627 4630 1
4628 4629 1
4628 4630 1
4628 4631 1
4628 4653 1
4628 4656 1
4628 4657 1
4629 4630 1
4629 4652 1
4629 4653 1
4629 4656 1
4629 5241 1
4629 5244 1
4629 5245 1
4629 5270 1
4630 4631 1
4630 5244 1
4630 5245 1
4631 4656 1
4631 4657 1
4631 4660 1
4631 5245 1
4631 5274 1
4632 4633 1
4632 4635 1
4632 4665 1
4632 4666 1
4633 4634 1
4633 4635 1
4633 4636 1
4634 4635 1
4634 4636 1
4634 4637 1
4634 4639 1
4634 4666 1
4634 4669 1
4634 4670 1
4635 4636 1
4635 4665 1
4635 4666 1
4635 4669 1
4635 5249 1
4635 5250 1
4635 5251 1
4635 5283 1
4636 4637 1
4636 4639 1
4636 5226 1
4636 5250 1
4636 5251 1
4636 5254 1
4637 4638 1
4637 4639 1
4637 4640 1
4638 4639 1
4638 4640 1
4638 4641 1
4638 4643 1
4638 4670 1
4638 4673 1
4638 4674 1
4639 4640 1
4639 4669 1
4639 4670 1
4639 4673 1
4639 5251 1
4639 5254 1
4639 5255 1
4639 5287 1
4640 4641 1
4640 4643 1
4640 5229 1
4640 5254 1
4640 5255 1
4640 5258 1
4641 4642 1
4641 4643 1
4641 4644 1
4642 4643 1
4642 4644 1
4642 4674 1
4642 4677 1
4643 4644 1
4643 4673 1
4643 4674 1
4643 4677 1
4643 5255 1
4643 5258 1
4643 5259 1
4643 5291 1
4644 5233 1
4644 5258 1
4644 5259 1
4645 4646 1
4645 4647 1
4645 4648 1
4646 4647 1
4646 4648 1
4646 4649 1
4646 4651 1
4646 4678 1
4646 4681 1
4646 4682 1
4647 4648 1
4647 4678 1
4647 4681 1
4647 5262 1
4647 5263 1
4647 5295 1
4648 4649 1
4648 4651 1
4648 5237 1
4648 5262 1
4648 5263 1
4648 5266 1
4649 4650 1
4649 4651 1
4649 4652 1
4650 4651 1
4650 4652 1
4650 4653 1
4650 4655 1
4650 4682 1
4650 4685 1
4650 4686 1
4651 4652 1
4651 4681 1
4651 4682 1
4651 4685 1
4651 5263 1
4651 5266 1
4651 5267 1
4651 5299 1
4652 4653 1
4652 4655 1
4652 5241 1
4652 5266 1
4652 5267 1
4652 5270 1
4653 4654 1
4653 4655 1
4653 4656 1
4654 4655 1
4654 4656 1
4654 4657 1
4654 4659 1
4654 4686 1
4654 4689 1
4654 4690 1
4655 4656 1
4655 4685 1
4655 4686 1
4655 4689 1
4655 5267 1
4655 5270 1
4655 5271 1
4655 5303 1
4656 4657 1
4656 4659 1
4656 5245 1
4656 5270 1
4656 5271 1
4656 5274 1
4657 4658 1
4657 4659 1
4657 4660 1
4658 4659 1
4658 4660 1
4658 4661 1
4658 4690 1
4658 4693 1
4658 4694 1
4659 4660 1
4659 4689 1
4659 4690 1
4659 4693 1
4659 5271 1
4659 5274 1
4659 5275 1
4659 5307 1
4660 4661 1
4660 5274 1
4660 5275 1
4661 4693 1
4661 4694 1
4661 4697 1
4661 5275 1
4661 5311 1
4662 4664 1
4662 4702 1
4662 4705 1
4662 4706 1
4663 4664 1
4663 4665 1
4663 4666 1
4663 4668 1
4663 4706 1
4663 4709 1
4663 4710 1
4664 4665 1
4664 4705 1
4664 4706 1
4664 4709 1
4664 5279 1
4664 5280 1
4664 5323 1
4665 4666 1
4665 4668 1
4665 5249 1
4665 5280 1
4665 5283 1
4666 4667 1
4666 4668 1
4666 4669 1
4667 4668 1
4667 4669 1
4667 4670 1
4667 4672 1
4667 4710 1
4667 4713 1
4667 4714 1
4668 4669 1
4668 4709 1
4668 4710 1
4668 4713 1
4668 5280 1
4668 5283 1
4668 5284 1
4668 5327 1
4669 4670 1
4669 4672 1
4669 5251 1
4669 5283 1
4669 5284 1
4669 5287 1
4670 4671 1
4670 4672 1
4670 4673 1
4671 4672 1
4671 4673 1
4671 4674 1
4671 4676 1
4671 4714 1
4671 4717 1
4671 4718 1
4672 4673 1
4672 4713 1
4672 4714 1
4672 4717 1
4672 5284 1
4672 5287 1
4672 5288 1
4672 5331 1
4673 4674 1
4673 4676 1
4673 5255 1
4673 5287 1
4673 5288 1
4673 5291 1
4674 4675 1
4674 4676 1
4674 4677 1
4675 4676 1
4675 4677 1
4675 4718 1
4675 4721 1
4676 4677 1
4676 4717 1
4676 4718 1
4676 4721 1
4676 5288 1
4676 5291 1
4676 5292 1
4676 5335 1
4677 5259 1
4677 5291 1
4677 5292 1
4678 4679 1
4678 4680 1
4678 4681 1
4679 4680 1
4679 4681 1
4679 4682 1
4679 4684 1
4679 4722 1
4679 4725 1
4679 4726 1
4680 4681 1
4680 4722 1
4680 4725 1
4680 5295 1
4680 5296 1
4680 5339 1
4681 4682 1
4681 4684 1
4681 5263 1
4681 5295 1
4681 5296 1
4681 5299 1
4682 4683 1
4682 4684 1
4682 4685 1
4683 4684 1
4683 4685 1
4683 4686 1
4683 4688 1
4683 4726 1
4683 4729 1
4683 4730 1
4684 4685 1
4684 4725 1
4684 4726 1
4684 4729 1
4684 5296 1
4684 5299 1
4684 5300 1
4684 5343 1
4685 4686 1
4685 4688 1
4685 5267 1
4685 5299 1
4685 5300 1
4685 5303 1
4686 4687 1
4686 4688 1
4686 4689 1
4687 4688 1
4687 4689 1
4687 4690 1
4687 4692 1
4687 4730 1
4687 4733 1
4687 4734 1
4688 4689 1
4688 4729 1
4688 4730 1
4688 4733 1
4688 5300 1
4688 5303 1
4688 5304 1
4688 5347 1
4689 4690 1
4689 4692 1
4689 5271 1
4689 5303 1
4689 5304 1
4689 5307 1
4690 4691 1
4690 4692 1
4690 4693 1
4691 4692 1
4691 4693 1
4691 4694 1
4691 4696 1
4691 4734 1
4691 4737 1
4691 4738 1
4692 4693 1
4692 4733 1
4692 4734 1
4692 4737 1
4692 5304 1
4692 5307 1
4692 5308 1
4692 5351 1
4693 4694 1
4693 4696 1
4693 5275 1
4693 5307 1
4693 5308 1
4693 5311 1
4694 4695 1
4694 4696 1
4694 4697 1
4695 4696 1
4695 4697 1
4695 4699 1
4695 4738 1
4695 4741 1
4695 4742 1
4696 4697 1
4696 4737 1
4696 4738 1
4696 4741 1
4696 5308 1
4696 5311 1
4696 5312 1
4696 5355 1
4697 4699 1
4697 5311 1
4697 5312 1
4698 4699 1
4698 4742 1
4698 4745 1
4698 4746 1
4699 4741 1
4699 4742 1
4699 4745 1
4699 5312 1
4699 5315 1
4699 5359 1
4700 4701 1
4700 4702 1
4700 4704 1
4700 4764 1
4700 4767 1
4700 4768 1
4701 4763 1
4701 4764 1
4701 4767 1
4701 5317 1
4701 5381 1
4702 4703 1
4702 4704 1
4702 4705 1
4703 4704 1
4703 4705 1
4703 4706 1
4703 4708 1
4703 4768 1
4703 4771 1
4703 4772 1
4704 4705 1
4704 4767 1
4704 4768 1
4704 4771 1
4704 5317 1
4704 5319 1
4704 5320 1
4704 5385 1
4705 4706 1
4705 4708 1
4705 5279 1
4705 5319 1
4705 5320 1
4705 5323 1
4706 4707 1
4706 4708 1
4706 4709 1
4707 4708 1
4707 4709 1
4707 4710 1
4707 4712 1
4707 4772 1
4707 4775 1
4707 4776 1
4708 4709 1
4708 4771 1
4708 4772 1
4708 4775 1
4708 5320 1
4708 5323 1
4708 5324 1
4708 5389 1
4709 4710 1
4709 4712 1
4709 5280 1
4709 5323 1
4709 5324 1
4709 5327 1
4710 4711 1
4710 4712 1
4710 4713 1
4711 4712 1
4711 4713 1
4711 4714 1
4711 4716 1
4711 4776 1
4711 4779 1
4711 4780 1
4712 4713 1
4712 4775 1
4712 4776 1
4712 4779 1
4712 5324 1
4712 5327 1
4712 5328 1
4712 5393 1
4713 4714 1
4713 4716 1
4713 5284 1
4713 5327 1
4713 5328 1
4713 5331 1
4714 4715 1
4714 4716 1
4714 4717 1
4715 4716 1
4715 4717 1
4715 4718 1
4715 4720 1
4715 4780 1
4715 4783 1
4715 4784 1
4716 4717 1
4716 4779 1
4716 4780 1
4716 4783 1
4716 5328 1
4716 5331 1
4716 5332 1
4716 5397 1
4717 4718 1
4717 4720 1
4717 5288 1
4717 5331 1
4717 5332 1
4717 5335 1
4718 4719 1
4718 4720 1
4718 4721 1
4719 4720 1
4719 4721 1
4719 4784 1
4719 4787 1
4720 4721 1
4720 4783 1
4720 4784 1
4720 4787 1
4720 5332 1
4720 5335 1
4720 5336 1
4720 5401 1
4721 5292 1
4721 5335 1
4721 5336 1
4722 4723 1
4722 4724 1
4722 4725 1
4723 4724 1
4723 4725 1
4723 4726 1
4723 4728 1
4723 4788 1
4723 4791 1
4723 4792 1
4724 4725 1
4724 4788 1
4724 4791 1
4724 5339 1
4724 5340 1
4724 5405 1
4725 4726 1
4725 4728 1
4725 5296 1
4725 5339 1
4725 5340 1
4725 5343 1
4726 4727 1
4726 4728 1
4726 4729 1
4727 4728 1
4727 4729 1
4727 4730 1
4727 4732 1
4727 4792 1
4727 4795 1
4727 4796 1
4728 4729 1
4728 4791 1
4728 4792 1
4728 4795 1
4728 5340 1
4728 5343 1
4728 5344 1
4728 5409 1
4729 4730 1
4729 4732 1
4729 5300 1
4729 5343 1
4729 5344 1
4729 5347 1
4730 4731 1
4730 4732 1
4730 4733 1
4731 4732 1
4731 4733 1
4731 4734 1
4731 4736 1
4731 4796 1
4731 4799 1
4731 4800 1
4732 4733 1
4732 4795 1
4732 4796 1
4732 4799 1
4732 5344 1
4732 5347 1
4732 5348 1
4732 5413 1
4733 4734 1
4733 4736 1
4733 5304 1
4733 5347 1
4733 5348 1
4733 5351 1
4734 4735 1
4734 4736 1
4734 4737 1
4735 4736 1
4735 4737 1
4735 4738 1
4735 4740 1
4735 4800 1
4735 4803 1
4735 4804 1
4736 4737 1
4736 4799 1
4736 4800 1
4736 4803 1
4736 5348 1
4736 5351 1
4736 5352 1
4736 5417 1
4737 4738 1
4737 4740 1
4737 5308 1
4737 5351 1
4737 5352 1
4737 5355 1
4738 4739 1
4738 4740 1
4738 4741 1
4739 4740 1
4739 4741 1
4739 4742 1
4739 4744 1
4739 4804 1
4739 4807 1
4739 4808 1
4740 4741 1
4740 4803 1
4740 4804 1
4740 4807 1
4740 5352 1
4740 5355 1
4740 5356 1
4740 5421 1
4741 4742 1
4741 4744 1
4741 5312 1
4741 5355 1
4741 5356 1
4741 5359 1
4742 4743 1
4742 4744 1
4742 4745 1
4743 4744 1
4743 4745 1
4743 4746 1
4743 4748 1
4743 4808 1
4743 4811 1
4743 4812 1
4744 4745 1
4744 4807 1
4744 4808 1
4744 4811 1
4744 5356 1
4744 5359 1
4744 5360 1
4744 5425 1
4745 4746 1
4745 4748 1
4745 5315 1
4745 5359 1
4745 5360 1
4745 5363 1
4746 4747 1
4746 4748 1
4746 4749 1
4747 4748 1
4747 4749 1
4747 4750 1
4747 4752 1
4747 4812 1
4747 4815 1
4747 4816 1
4748 4749 1
4748 4811 1
4748 4812 1
4748 4815 1
4748 5360 1
4748 5363 1
4748 5364 1
4748 5429 1
4749 4750 1
4749 4752 1
4749 5363 1
4749 5364 1
4749 5367 1
4750 4751 1
4750 4752 1
4751 4752 1
4751 4754 1
4751 4816 1
4751 4819 1
4751 4820 1
4752 4815 1
4752 4816 1
4752 4819 1
4752 5364 1
4752 5367 1
4752 5368 1
4752 5433 1
4753 4754 1
4753 4756 1
4753 4820 1
4753 4823 1
4753 4824 1
4754 4819 1
4754 4820 1
4754 4823 1
4754 5368 1
4754 5370 1
4754 5437 1
4755 4756 1
4755 4758 1
4755 4824 1
4755 4827 1
4755 4828 1
4756 4823 1
4756 4824 1
4756 4827 1
4756 5370 1
4756 5372 1
4756 5441 1
4757 4758 1
4757 4759 1
4757 4760 1
4757 4762 1
4757 4828 1
4757 4831 1
4757 4832 1
4758 4759 1
4758 4827 1
4758 4828 1
4758 4831 1
4758 5372 1
4758 5374 1
4758 5445 1
4759 4760 1
4759 4762 1
4759 5374 1
4759 5377 1
4760 4761 1
4760 4762 1
4760 4763 1
4761 4762 1
4761 4763 1
4761 4764 1
4761 4766 1
4761 4832 1
4761 4835 1
4761 4836 1
4762 4763 1
4762 4831 1
4762 4832 1
4762 4835 1
4762 5374 1
4762 5377 1
4762 5378 1
4762 5449 1
4763 4764 1
4763 4766 1
4763 5377 1
4763 5378 1
4763 5381 1
4764 4765 1
4764 4766 1
4764 4767 1
4765 4766 1
4765 4767 1
4765 4768 1
4765 4770 1
4765 4836 1
4765 4839 1
4765 4840 1
4766 4767 1
4766 4835 1
4766 4836 1
4766 4839 1
4766 5378 1
4766 5381 1
4766 5382 1
4766 5453 1
4767 4768 1
4767 4770 1
4767 5317 1
4767 5381 1
4767 5382 1
4767 5385 1
4768 4769 1
4768 4770 1
4768 4771 1
4769 4770 1
4769 4771 1
4769 4772 1
4769 4774 1
4769 4840 1
4769 4843 1
4769 4844 1
4770 4771 1
4770 4839 1
4770 4840 1
4770 4843 1
4770 5382 1
4770 5385 1
4770 5386 1
4770 5457 1
4771 4772 1
4771 4774 1
4771 5320 1
4771 5385 1
4771 5386 1
4771 5389 1
4772 4773 1
4772 4774 1
4772 4775 1
4773 4774 1
4773 4775 1
4773 4776 1
4773 4778 1
4773 4844 1
4773 4847 1
4773 4848 1
4774 4775 1
4774 4843 1
4774 4844 1
4774 4847 1
4774 5386 1
4774 5389 1
4774 5390 1
4774 5461 1
4775 4776 1
4775 4778 1
4775 5324 1
4775 5389 1
4775 5390 1
4775 5393 1
4776 4777 1
4776 4778 1
4776 4779 1
4777 4778 1
4777 4779 1
4777 4780 1
4777 4782 1
4777 4848 1
4777 4851 1
4777 4852 1
4778 4779 1
4778 4847 1
4778 4848 1
4778 4851 1
4778 5390 1
4778 5393 1
4778 5394 1
4778 5465 1
4779 4780 1
4779 4782 1
4779 5328 1
4779 5393 1
4779 5394 1
4779 5397 1
4780 4781 1
4780 4782 1
4780 4783 1
4781 4782 1
4781 4783 1
4781 4784 1
4781 4786 1
4781 4852 1
4781 4855 1
4781 4856 1
4782 4783 1
4782 4851 1
4782 4852 1
4782 4855 1
4782 5394 1
4782 5397 1
4782 5398 1
4782 5469 1
4783 4784 1
4783 4786 1
4783 5332 1
4783 5397 1
4783 5398 1
4783 5401 1
4784 4785 1
4784 4786 1
4784 4787 1
4785 4786 1
4785 4787 1
4785 4856 1
4785 4859 1
4786 4787 1
4786 4855 1
4786 4856 1
4786 4859 1
4786 5398 1
4786 5401 1
4786 5402 1
4786 5473 1
4787 5336 1
4787 5401 1
4787 5402 1
4788 4789 1
4788 4790 1
4788 4791 1
4789 4790 1
4789 4791 1
4789 4792 1
4789 4794 1
4790 4791 1
4790 5405 1
4790 5406 1
4791 4792 1
4791 4794 1
4791 5340 1
4791 5405 1
4791 5406 1
4791 5409 1
4792 4793 1
4792 4794 1
4792 4795 1
4793 4794 1
4793 4795 1
4793 4796 1
4793 4798 1
4794 4795 1
4794 5406 1
4794 5409 1
4794 5410 1
4795 4796 1
4795 4798 1
4795 5344 1
4795 5409 1
4795 5410 1
4795 5413 1
4796 4797 1
4796 4798 1
4796 4799 1
4797 4798 1
4797 4799 1
4797 4800 1
4797 4802 1
4798 4799 1
4798 5410 1
4798 5413 1
4798 5414 1
4799 4800 1
4799 4802 1
4799 5348 1
4799 5413 1
4799 5414 1
4799 5417 1
4800 4801 1
4800 4802 1
4800 4803 1
4801 4802 1
4801 4803 1
4801 4804 1
4801 4806 1
4802 4803 1
4802 5414 1
4802 5417 1
4802 5418 1
4803 4804 1
4803 4806 1
4803 5352 1
4803 5417 1
4803 5418 1
4803 5421 1
4804 4805 1
4804 4806 1
4804 4807 1
4805 4806 1
4805 4807 1
4805 4808 1
4805 4810 1
4806 4807 1
4806 5418 1
4806 5421 1
4806 5422 1
4807 4808 1
4807 4810 1
4807 5356 1
4807 5421 1
4807 5422 1
4807 5425 1
4808 4809 1
4808 4810 1
4808 4811 1
4809 4810 1
4809 4811 1
4809 4812 1
4809 4814 1
4810 4811 1
4810 5422 1
4810 5425 1
4810 5426 1
4811 4812 1
4811 4814 1
4811 5360 1
4811 5425 1
4811 5426 1
4811 5429 1
4812 4813 1
4812 4814 1
4812 4815 1
4813 4814 1
4813 4815 1
4813 4816 1
4813 4818 1
4814 4815 1
4814 5426 1
4814 5429 1
4814 5430 1
4815 4816 1
4815 4818 1
4815 5364 1
4815 5429 1
4815 5430 1
4815 5433 1
4816 4817 1
4816 4818 1
4816 4819 1
4817 4818 1
4817 4819 1
4817 4820 1
4817 4822 1
4818 4819 1
4818 5430 1
4818 5433 1
4818 5434 1
4819 4820 1
4819 4822 1
4819 5368 1
4819 5433 1
4819 5434 1
4819 5437 1
4820 4821 1
4820 4822 1
4820 4823 1
4821 4822 1
4821 4823 1
4821 4824 1
4821 4826 1
4822 4823 1
4822 5434 1
4822 5437 1
4822 5438 1
4823 4824 1
4823 4826 1
4823 5370 1
4823 5437 1
4823 5438 1
4823 5441 1
4824 4825 1
4824 4826 1
4824 4827 1
4825 4826 1
4825 4827 1
4825 4828 1
4825 4830 1
4826 4827 1
4826 5438 1
4826 5441 1
4826 5442 1
4827 4828 1
4827 4830 1
4827 5372 1
4827 5441 1
4827 5442 1
4827 5445 1
4828 4829 1
4828 4830 1
4828 4831 1
4829 4830 1
4829 4831 1
4829 4832 1
4829 4834 1
4830 4831 1
4830 5442 1
4830 5445 1
4830 5446 1
4831 4832 1
4831 4834 1
4831 5374 1
4831 5445 1
4831 5446 1
4831 5449 1
4832 4833 1
4832 4834 1
4832 4835 1
4833 4834 1
4833 4835 1
4833 4836 1
4833 4838 1
4834 4835 1
4834 5446 1
4834 5449 1
4834 5450 1
4835 4836 1
4835 4838 1
4835 5378 1
4835 5449 1
4835 5450 1
4835 5453 1
4836 4837 1
4836 4838 1
4836 4839 1
4837 4838 1
4837 4839 1
4837 4840 1
4837 4842 1
4838 4839 1
4838 5450 1
4838 5453 1
4838 5454 1
4839 4840 1
4839 4842 1
4839 5382 1
4839 5453 1
4839 5454 1
4839 5457 1
4840 4841 1
4840 4842 1
4840 4843 1
4841 4842 1
4841 4843 1
4841 4844 1
4841 4846 1
4842 4843 1
4842 5454 1
4842 5457 1
4842 5458 1
4843 4844 1
4843 4846 1
4843 5386 1
4843 5457 1
4843 5458 1
4843 5461 1
4844 4845 1
4844 4846 1
4844 4847 1
4845 4846 1
4845 4847 1
4845 4848 1
4845 4850 1
4846 4847 1
4846 5458 1
4846 5461 1
4846 5462 1
4847 4848 1
4847 4850 1
4847 5390 1
4847 5461 1
4847 5462 1
4847 5465 1
4848 4849 1
4848 4850 1
4848 4851 1
4849 4850 1
4849 4851 1
4849 4852 1
4849 4854 1
4850 4851 1
4850 5462 1
4850 5465 1
4850 5466 1
4851 4852 1
4851 4854 1
4851 5394 1
4851 5465 1
4851 5466 1
4851 5469 1
4852 4853 1
4852 4854 1
4852 4855 1
4853 4854 1
4853 4855 1
4853 4856 1
4853 4858 1
4854 4855 1
4854 5466 1
4854 5469 1
4854 5470 1
4855 4856 1
4855 4858 1
4855 5398 1
4855 5469 1
4855 5470 1
4855 5473 1
4856 4857 1
4856 4858 1
4856 4859 1
4857 4858 1
4857 4859 1
4858 4859 1
4858 5470 1
4858 5473 1
4858 5474 1
4859 5402 1
4859 5473 1
4859 5474 1
4860 4861 1
4860 4862 1
4860 4863 1
4861 4862 1
4861 4863 1
4861 4864 1
4861 4866 1
4861 4932 1
4861 4935 1
4861 4936 1
4862 4863 1
4862 4932 1
4862 4935 1
4862 5477 1
4862 5478 1
4862 5549 1
4863 4864 1
4863 4866 1
4863 5477 1
4863 5478 1
4863 5481 1
4864 4865 1
4864 4866 1
4864 4867 1
4865 4866 1
4865 4867 1
4865 4868 1
4865 4870 1
4865 4936 1
4865 4939 1
4865 4940 1
4866 4867 1
4866 4935 1
4866 4936 1
4866 4939 1
4866 5478 1
4866 5481 1
4866 5482 1
4866 5553 1
4867 4868 1
4867 4870 1
4867 5481 1
4867 5482 1
4867 5485 1
4868 4869 1
4868 4870 1
4868 4871 1
4869 4870 1
4869 4871 1
4869 4872 1
4869 4874 1
4869 4940 1
4869 4943 1
4869 4944 1
4870 4871 1
4870 4939 1
4870 4940 1
4870 4943 1
4870 5482 1
4870 5485 1
4870 5486 1
4870 5557 1
4871 4872 1
4871 4874 1
4871 5485 1
4871 5486 1
4871 5489 1
4872 4873 1
4872 4874 1
4872 4875 1
4873 4874 1
4873 4875 1
4873 4876 1
4873 4878 1
4873 4944 1
4873 4947 1
4873 4948 1
4874 4875 1
4874 4943 1
4874 4944 1
4874 4947 1
4874 5486 1
4874 5489 1
4874 5490 1
4874 5561 1
4875 4876 1
4875 4878 1
4875 5489 1
4875 5490 1
4875 5493 1
4876 4877 1
4876 4878 1
4876 4879 1
4877 4878 1
4877 4879 1
4877 4880 1
4877 4882 1
4877 4948 1
4877 4951 1
4877 4952 1
4878 4879 1
4878 4947 1
4878 4948 1
4878 4951 1
4878 5490 1
4878 5493 1
4878 5494 1
4878 5565 1
4879 4880 1
4879 4882 1
4879 5493 1
4879 5494 1
4879 5497 1
4880 4881 1
4880 4882 1
4880 4883 1
4881 4882 1
4881 4883 1
4881 4884 1
4881 4886 1
4881 4952 1
4881 4955 1
4881 4956 1
4882 4883 1
4882 4951 1
4882 4952 1
4882 4955 1
4882 5494 1
4882 5497 1
4882 5498 1
4882 5569 1
4883 4884 1
4883 4886 1
4883 5497 1
4883 5498 1
4883 5501 1
4884 4885 1
4884 4886 1
4884 4887 1
4885 4886 1
4885 4887 1
4885 4888 1
4885 4890 1
4885 4956 1
4885 4959 1
4885 4960 1
4886 4887 1
4886 4955 1
4886 4956 1
4886 4959 1
4886 5498 1
4886 5501 1
4886 5502 1
4886 5573 1
4887 4888 1
4887 4890 1
4887 5501 1
4887 5502 1
4887 5505 1
4888 4889 1
4888 4890 1
4888 4891 1
4889 4890 1
4889 4891 1
4889 4892 1
4889 4894 1
4889 4960 1
4889 4963 1
4889 4964 1
4890 4891 1
4890 4959 1
4890 4960 1
4890 4963 1
4890 5502 1
4890 5505 1
4890 5506 1
4890 5577 1
4891 4892 1
4891 4894 1
4891 5505 1
4891 5506 1
4891 5509 1
4892 4893 1
4892 4894 1
4892 4895 1
4893 4894 1
4893 4895 1
4893 4896 1
4893 4898 1
4893 4964 1
4893 4966 1
4893 4967 1
4894 4895 1
4894 4963 1
4894 4964 1
4894 4966 1
4894 5506 1
4894 5509 1
4894 5510 1
4894 5581 1
4895 4896 1
4895 4898 1
4895 5509 1
4895 5510 1
4895 5513 1
4896 4897 1
4896 4898 1
4896 4899 1
4897 4898 1
4897 4899 1
4897 4900 1
4897 4902 1
4897 4967 1
4897 4968 1
4897 4969 1
4898 4899 1
4898 4966 1
4898 4967 1
4898 4968 1
4898 5510 1
4898 5513 1
4898 5514 1
4898 5584 1
4899 4900 1
4899 4902 1
4899 5513 1
4899 5514 1
4899 5517 1
4900 4901 1
4900 4902 1
4900 4903 1
4901 4902 1
4901 4903 1
4901 4904 1
4901 4906 1
4901 4969 1
4901 4972 1
4901 4973 1
4902 4903 1
4902 4968 1
4902 4969 1
4902 4972 1
4902 5514 1
4902 5517 1
4902 5518 1
4902 5586 1
4903 4904 1
4903 4906 1
4903 5517 1
4903 5518 1
4903 5521 1
4904 4905 1
4904 4906 1
4904 4907 1
4905 4906 1
4905 4907 1
4905 4908 1
4905 4910 1
4905 4973 1
4905 4976 1
4905 4977 1
4906 4907 1
4906 4972 1
4906 4973 1
4906 4976 1
4906 5518 1
4906 5521 1
4906 5522 1
4906 5590 1
4907 4908 1
4907 4910 1
4907 5521 1
4907 5522 1
4907 5525 1
4908 4909 1
4908 4910 1
4908 4911 1
4909 4910 1
4909 4911 1
4909 4912 1
4909 4914 1
4909 4977 1
4909 4980 1
4909 4981 1
4910 4911 1
4910 4976 1
4910 4977 1
4910 4980 1
4910 5522 1
4910 5525 1
4910 5526 1
4910 5594 1
4911 4912 1
4911 4914 1
4911 5525 1
4911 5526 1
4911 5529 1
4912 4913 1
4912 4914 1
4912 4915 1
4913 4914 1
4913 4915 1
4913 4916 1
4913 4918 1
4913 4981 1
4913 4984 1
4913 4985 1
4914 4915 1
4914 4980 1
4914 4981 1
4914 4984 1
4914 5526 1
4914 5529 1
4914 5530 1
4914 5598 1
4915 4916 1
4915 4918 1
4915 5529 1
4915 5530 1
4915 5533 1
4916 4917 1
4916 4918 1
4916 4919 1
4917 4918 1
4917 4919 1
4917 4920 1
4917 4922 1
4917 4985 1
4917 4988 1
4917 4989 1
4918 4919 1
4918 4984 1
4918 4985 1
4918 4988 1
4918 5530 1
4918 5533 1
4918 5534 1
4918 5602 1
4919 4920 1
4919 4922 1
4919 5533 1
4919 5534 1
4919 5537 1
4920 4921 1
4920 4922 1
4920 4923 1
4921 4922 1
4921 4923 1
4921 4924 1
4921 4926 1
4921 4989 1
4921 4992 1
4921 4993 1
4922 4923 1
4922 4988 1
4922 4989 1
4922 4992 1
4922 5534 1
4922 5537 1
4922 5538 1
4922 5606 1
4923 4924 1
4923 4926 1
4923 5537 1
4923 5538 1
4923 5541 1
4924 4925 1
4924 4926 1
4924 4927 1
4925 4926 1
4925 4927 1
4925 4928 1
4925 4930 1
4925 4993 1
4925 4996 1
4925 4997 1
4926 4927 1
4926 4992 1
4926 4993 1
4926 4996 1
4926 5538 1
4926 5541 1
4926 5542 1
4926 5610 1
4927 4928 1
4927 4930 1
4927 5541 1
4927 5542 1
4927 5545 1
4928 4929 1
4928 4930 1
4928 4931 1
4929 4930 1
4929 4931 1
4929 4997 1
4929 5000 1
4930 4931 1
4930 4996 1
4930 4997 1
4930 5000 1
4930 5542 1
4930 5545 1
4930 5546 1
4930 5614 1
4931 5545 1
4931 5546 1
4932 4933 1
4932 4934 1
4932 4935 1
4933 4934 1
4933 4935 1
4933 4936 1
4933 4938 1
4933 5001 1
4933 5004 1
4933 5005 1
4934 4935 1
4934 5001 1
4934 5004 1
4934 5549 1
4934 5550 1
4934 5618 1
4935 4936 1
4935 4938 1
4935 5478 1
4935 5549 1
4935 5550 1
4935 5553 1
4936 4937 1
4936 4938 1
4936 4939 1
4937 4938 1
4937 4939 1
4937 4940 1
4937 4942 1
4937 5005 1
4937 5008 1
4937 5009 1
4938 4939 1
4938 5004 1
4938 5005 1
4938 5008 1
4938 5550 1
4938 5553 1
4938 5554 1
4938 5622 1
4939 4940 1
4939 4942 1
4939 5482 1
4939 5553 1
4939 5554 1
4939 5557 1
4940 4941 1
4940 4942 1
4940 4943 1
4941 4942 1
4941 4943 1
4941 4944 1
4941 4946 1
4941 5009 1
4941 5012 1
4941 5013 1
4942 4943 1
4942 5008 1
4942 5009 1
4942 5012 1
4942 5554 1
4942 5557 1
4942 5558 1
4942 5626 1
4943 4944 1
4943 4946 1
4943 5486 1
4943 5557 1
4943 5558 1
4943 5561 1
4944 4945 1
4944 4946 1
4944 4947 1
4945 4946 1
4945 4947 1
4945 4948 1
4945 4950 1
4945 5013 1
4945 5016 1
4945 5017 1
4946 4947 1
4946 5012 1
4946 5013 1
4946 5016 1
4946 5558 1
4946 5561 1
4946 5562 1
4946 5630 1
4947 4948 1
4947 4950 1
4947 5490 1
4947 5561 1
4947 5562 1
4947 5565 1
4948 4949 1
4948 4950 1
4948 4951 1
4949 4950 1
4949 4951 1
4949 4952 1
4949 4954 1
4949 5017 1
4949 5020 1
4949 5021 1
4950 4951 1
4950 5016 1
4950 5017 1
4950 5020 1
4950 5562 1
4950 5565 1
4950 5566 1
4950 5634 1
4951 4952 1
4951 4954 1
4951 5494 1
4951 5565 1
4951 5566 1
4951 5569 1
4952 4953 1
4952 4954 1
4952 4955 1
4953 4954 1
4953 4955 1
4953 4956 1
4953 4958 1
4953 5021 1
4953 5023 1
4953 5024 1
4954 4955 1
4954 5020 1
4954 5021 1
4954 5023 1
4954 5566 1
4954 5569 1
4954 5570 1
4954 5638 1
4955 4956 1
4955 4958 1
4955 5498 1
4955 5569 1
4955 5570 1
4955 5573 1
4956 4957 1
4956 4958 1
4956 4959 1
4957 4958 1
4957 4959 1
4957 4960 1
4957 4962 1
4957 5024 1
4958 4959 1
4958 5023 1
4958 5024 1
4958 5570 1
4958 5573 1
4958 5574 1
4958 5641 1
4959 4960 1
4959 4962 1
4959 5502 1
4959 5573 1
4959 5574 1
4959 5577 1
4960 4961 1
4960 4962 1
4960 4963 1
4961 4962 1
4961 4963 1
4961 4964 1
4961 4965 1
4962 4963 1
4962 5574 1
4962 5577 1
4962 5578 1
4963 4964 1
4963 4965 1
4963 5506 1
4963 5577 1
4963 5578 1
4963 5581 1
4964 4965 1
4964 4966 1
4965 4966 1
4965 5578 1
4965 5581 1
4966 4967 1
4966 5510 1
4966 5581 1
4966 5584 1
4967 4968 1
4968 4969 1
4968 4971 1
4968 5514 1
4968 5584 1
4968 5586 1
4969 4970 1
4969 4971 1
4969 4972 1
4970 4971 1
4970 4972 1
4970 4973 1
4970 4975 1
4971 4972 1
4971 5586 1
4971 5587 1
4972 4973 1
4972 4975 1
4972 5518 1
4972 5586 1
4972 5587 1
4972 5590 1
4973 4974 1
4973 4975 1
4973 4976 1
4974 4975 1
4974 4976 1
4974 4977 1
4974 4979 1
4974 5025 1
4975 4976 1
4975 5587 1
4975 5590 1
4975 5591 1
4976 4977 1
4976 4979 1
4976 5522 1
4976 5590 1
4976 5591 1
4976 5594 1
4977 4978 1
4977 4979 1
4977 4980 1
4978 4979 1
4978 4980 1
4978 4981 1
4978 4983 1
4978 5025 1
4978 5026 1
4978 5027 1
4979 4980 1
4979 5025 1
4979 5026 1
4979 5591 1
4979 5594 1
4979 5595 1
4979 5642 1
4980 4981 1
4980 4983 1
4980 5526 1
4980 5594 1
4980 5595 1
4980 5598 1
4981 4982 1
4981 4983 1
4981 4984 1
4982 4983 1
4982 4984 1
4982 4985 1
4982 4987 1
4982 5027 1
4982 5030 1
4982 5031 1
4983 4984 1
4983 5026 1
4983 5027 1
4983 5030 1
4983 5595 1
4983 5598 1
4983 5599 1
4983 5644 1
4984 4985 1
4984 4987 1
4984 5530 1
4984 5598 1
4984 5599 1
4984 5602 1
4985 4986 1
4985 4987 1
4985 4988 1
4986 4987 1
4986 4988 1
4986 4989 1
4986 4991 1
4986 5031 1
4986 5034 1
4986 5035 1
4987 4988 1
4987 5030 1
4987 5031 1
4987 5034 1
4987 5599 1
4987 5602 1
4987 5603 1
4987 5648 1
4988 4989 1
4988 4991 1
4988 5534 1
4988 5602 1
4988 5603 1
4988 5606 1
4989 4990 1
4989 4991 1
4989 4992 1
4990 4991 1
4990 4992 1
4990 4993 1
4990 4995 1
4990 5035 1
4990 5038 1
4990 5039 1
4991 4992 1
4991 5034 1
4991 5035 1
4991 5038 1
4991 5603 1
4991 5606 1
4991 5607 1
4991 5652 1
4992 4993 1
4992 4995 1
4992 5538 1
4992 5606 1
4992 5607 1
4992 5610 1
4993 4994 1
4993 4995 1
4993 4996 1
4994 4995 1
4994 4996 1
4994 4997 1
4994 4999 1
4994 5039 1
4994 5042 1
4994 5043 1
4995 4996 1
4995 5038 1
4995 5039 1
4995 5042 1
4995 5607 1
4995 5610 1
4995 5611 1
4995 5656 1
4996 4997 1
4996 4999 1
4996 5542 1
4996 5610 1
4996 5611 1
4996 5614 1
4997 4998 1
4997 4999 1
4997 5000 1
4998 4999 1
4998 5000 1
4998 5043 1
4998 5046 1
4999 5000 1
4999 5042 1
4999 5043 1
4999 5046 1
4999 5611 1
4999 5614 1
4999 5615 1
4999 5660 1
5000 5546 1
5000 5614 1
5000 5615 1
5001 5002 1
5001 5003 1
5001 5004 1
5002 5003 1
5002 5004 1
5002 5005 1
5002 5007 1
5002 5047 1
5002 5050 1
5002 5051 1
5003 5004 1
5003 5047 1
5003 5050 1
5003 5618 1
5003 5619 1
5003 5664 1
5004 5005 1
5004 5007 1
5004 5550 1
5004 5618 1
5004 5619 1
5004 5622 1
5005 5006 1
5005 5007 1
5005 5008 1
5006 5007 1
5006 5008 1
5006 5009 1
5006 5011 1
5006 5051 1
5006 5054 1
5006 5055 1
5007 5008 1
5007 5050 1
5007 5051 1
5007 5054 1
5007 5619 1
5007 5622 1
5007 5623 1
5007 5668 1
5008 5009 1
5008 5011 1
5008 5554 1
5008 5622 1
5008 5623 1
5008 5626 1
5009 5010 1
5009 5011 1
5009 5012 1
5010 5011 1
5010 5012 1
5010 5013 1
5010 5015 1
5010 5055 1
5010 5058 1
5010 5059 1
5011 5012 1
5011 5054 1
5011 5055 1
5011 5058 1
5011 5623 1
5011 5626 1
5011 5627 1
5011 5672 1
5012 5013 1
5012 5015 1
5012 5558 1
5012 5626 1
5012 5627 1
5012 5630 1
5013 5014 1
5013 5015 1
5013 5016 1
5014 5015 1
5014 5016 1
5014 5017 1
5014 5019 1
5014 5059 1
5014 5062 1
5014 5063 1
5015 5016 1
5015 5058 1
5015 5059 1
5015 5062 1
5015 5627 1
5015 5630 1
5015 5631 1
5015 5676 1
5016 5017 1
5016 5019 1
5016 5562 1
5016 5630 1
5016 5631 1
5016 5634 1
5017 5018 1
5017 5019 1
5017 5020 1
5018 5019 1
5018 5020 1
5018 5021 1
5018 5022 1
5018 5063 1
5019 5020 1
5019 5062 1
5019 5063 1
5019 5631 1
5019 5634 1
5019 5635 1
5019 5680 1
5020 5021 1
5020 5022 1
5020 5566 1
5020 5634 1
5020 5635 1
5020 5638 1
5021 5022 1
5021 5023 1
5022 5023 1
5022 5635 1
5022 5638 1
5023 5024 1
5023 5570 1
5023 5638 1
5023 5641 1
5025 5026 1
5026 5027 1
5026 5029 1
5026 5595 1
5026 5642 1
5026 5644 1
5027 5028 1
5027 5029 1
5027 5030 1
5028 5029 1
5028 5030 1
5028 5031 1
5028 5033 1
5028 5064 1
5028 5065 1
5029 5030 1
5029 5064 1
5029 5644 1
5029 5645 1
5030 5031 1
5030 5033 1
5030 5599 1
5030 5644 1
5030 5645 1
5030 5648 1
5031 5032 1
5031 5033 1
5031 5034 1
5032 5033 1
5032 5034 1
5032 5035 1
5032 5037 1
5032 5065 1
5032 5068 1
5032 5069 1
5033 5034 1
5033 5064 1
5033 5065 1
5033 5068 1
5033 5645 1
5033 5648 1
5033 5649 1
5033 5682 1
5034 5035 1
5034 5037 1
5034 5603 1
5034 5648 1
5034 5649 1
5034 5652 1
5035 5036 1
5035 5037 1
5035 5038 1
5036 5037 1
5036 5038 1
5036 5039 1
5036 5041 1
5036 5069 1
5036 5072 1
5036 5073 1
5037 5038 1
5037 5068 1
5037 5069 1
5037 5072 1
5037 5649 1
5037 5652 1
5037 5653 1
5037 5686 1
5038 5039 1
5038 5041 1
5038 5607 1
5038 5652 1
5038 5653 1
5038 5656 1
5039 5040 1
5039 5041 1
5039 5042 1
5040 5041 1
5040 5042 1
5040 5043 1
5040 5045 1
5040 5073 1
5040 5076 1
5040 5077 1
5041 5042 1
5041 5072 1
5041 5073 1
5041 5076 1
5041 5653 1
5041 5656 1
5041 5657 1
5041 5690 1
5042 5043 1
5042 5045 1
5042 5611 1
5042 5656 1
5042 5657 1
5042 5660 1
5043 5044 1
5043 5045 1
5043 5046 1
5044 5045 1
5044 5046 1
5044 5077 1
5044 5080 1
5045 5046 1
5045 5076 1
5045 5077 1
5045 5080 1
5045 5657 1
5045 5660 1
5045 5661 1
5045 5694 1
5046 5615 1
5046 5660 1
5046 5661 1
5047 5048 1
5047 5049 1
5047 5050 1
5048 5049 1
5048 5050 1
5048 5051 1
5048 5053 1
5048 5081 1
5048 5084 1
5048 5085 1
5049 5050 1
5049 5081 1
5049 5084 1
5049 5664 1
5049 5665 1
5049 5698 1
5050 5051 1
5050 5053 1
5050 5619 1
5050 5664 1
5050 5665 1
5050 5668 1
5051 5052 1
5051 5053 1
5051 5054 1
5052 5053 1
5052 5054 1
5052 5055 1
5052 5057 1
5052 5085 1
5052 5088 1
5052 5089 1
5053 5054 1
5053 5084 1
5053 5085 1
5053 5088 1
5053 5665 1
5053 5668 1
5053 5669 1
5053 5702 1
5054 5055 1
5054 5057 1
5054 5623 1
5054 5668 1
5054 5669 1
5054 5672 1
5055 5056 1
5055 5057 1
5055 5058 1
5056 5057 1
5056 5058 1
5056 5059 1
5056 5061 1
5056 5089 1
5056 5092 1
5056 5093 1
5057 5058 1
5057 5088 1
5057 5089 1
5057 5092 1
5057 5669 1
5057 5672 1
5057 5673 1
5057 5706 1
5058 5059 1
5058 5061 1
5058 5627 1
5058 5672 1
5058 5673 1
5058 5676 1
5059 5060 1
5059 5061 1
5059 5062 1
5060 5061 1
5060 5062 1
5060 5063 1
5060 5093 1
5061 5062 1
5061 5092 1
5061 5093 1
5061 5673 1
5061 5676 1
5061 5677 1
5061 5710 1
5062 5063 1
5062 5631 1
5062 5676 1
5062 5677 1
5062 5680 1
5064 5065 1
5064 5067 1
5064 5645 1
5064 5682 1
5065 5066 1
5065 5067 1
5065 5068 1
5066 5067 1
5066 5068 1
5066 5069 1
5066 5071 1
5066 5094 1
5066 5095 1
5067 5068 1
5067 5094 1
5067 5682 1
5067 5683 1
5068 5069 1
5068 5071 1
5068 5649 1
5068 5682 1
5068 5683 1
5068 5686 1
5069 5070 1
5069 5071 1
5069 5072 1
5070 5071 1
5070 5072 1
5070 5073 1
5070 5075 1
5070 5095 1
5070 5098 1
5070 5099 1
5071 5072 1
5071 5094 1
5071 5095 1
5071 5098 1
5071 5683 1
5071 5686 1
5071 5687 1
5071 5712 1
5072 5073 1
5072 5075 1
5072 5653 1
5072 5686 1
5072 5687 1
5072 5690 1
5073 5074 1
5073 5075 1
5073 5076 1
5074 5075 1
5074 5076 1
5074 5077 1
5074 5079 1
5074 5099 1
5074 5102 1
5074 5103 1
5075 5076 1
5075 5098 1
5075 5099 1
5075 5102 1
5075 5687 1
5075 5690 1
5075 5691 1
5075 5716 1
5076 5077 1
5076 5079 1
5076 5657 1
5076 5690 1
5076 5691 1
5076 5694 1
5077 5078 1
5077 5079 1
5077 5080 1
5078 5079 1
5078 5080 1
5078 5103 1
5078 5106 1
5079 5080 1
5079 5102 1
5079 5103 1
5079 5106 1
5079 5691 1
5079 5694 1
5079 5695 1
5079 5720 1
5080 5661 1
5080 5694 1
5080 5695 1
5081 5082 1
5081 5083 1
5081 5084 1
5082 5083 1
5082 5084 1
5082 5085 1
5082 5087 1
5082 5107 1
5082 5110 1
5082 5111 1
5083 5084 1
5083 5107 1
5083 5110 1
5083 5698 1
5083 5699 1
5083 5724 1
5084 5085 1
5084 5087 1
5084 5665 1
5084 5698 1
5084 5699 1
5084 5702 1
5085 5086 1
5085 5087 1
5085 5088 1
5086 5087 1
5086 5088 1
5086 5089 1
5086 5091 1
5086 5111 1
5086 5114 1
5086 5115 1
5087 5088 1
5087 5110 1
5087 5111 1
5087 5114 1
5087 5699 1
5087 5702 1
5087 5703 1
5087 5728 1
5088 5089 1
5088 5091 1
5088 5669 1
5088 5702 1
5088 5703 1
5088 5706 1
5089 5090 1
5089 5091 1
5089 5092 1
5090 5091 1
5090 5092 1
5090 5093 1
5090 5115 1
5090 5117 1
5091 5092 1
5091 5114 1
5091 5115 1
5091 5117 1
5091 5703 1
5091 5706 1
5091 5707 1
5091 5732 1
5092 5093 1
5092 5673 1
5092 5706 1
5092 5707 1
5092 5710 1
5094 5095 1
5094 5097 1
5094 5683 1
5094 5712 1
5095 5096 1
5095 5097 1
5095 5098 1
5096 5097 1
5096 5098 1
5096 5099 1
5096 5101 1
5096 5119 1
5096 5120 1
5097 5098 1
5097 5119 1
5097 5712 1
5097 5713 1
5098 5099 1
5098 5101 1
5098 5687 1
5098 5712 1
5098 5713 1
5098 5716 1
5099 5100 1
5099 5101 1
5099 5102 1
5100 5101 1
5100 5102 1
5100 5103 1
5100 5105 1
5100 5120 1
5100 5123 1
5100 5124 1
5101 5102 1
5101 5119 1
5101 5120 1
5101 5123 1
5101 5713 1
5101 5716 1
5101 5717 1
5101 5737 1
5102 5103 1
5102 5105 1
5102 5691 1
5102 5716 1
5102 5717 1
5102 5720 1
5103 5104 1
5103 5105 1
5103 5106 1
5104 5105 1
5104 5106 1
5104 5124 1
5104 5127 1
5105 5106 1
5105 5123 1
5105 5124 1
5105 5127 1
5105 5717 1
5105 5720 1
5105 5721 1
5105 5741 1
5106 5695 1
5106 5720 1
5106 5721 1
5107 5108 1
5107 5109 1
5107 5110 1
5108 5109 1
5108 5110 1
5108 5111 1
5108 5113 1
5108 5128 1
5108 5131 1
5108 5132 1
5109 5110 1
5109 5128 1
5109 5131 1
5109 5724 1
5109 5725 1
5109 5745 1
5110 5111 1
5110 5113 1
5110 5699 1
5110 5724 1
5110 5725 1
5110 5728 1
5111 5112 1
5111 5113 1
5111 5114 1
5112 5113 1
5112 5114 1
5112 5115 1
5112 5116 1
5112 5132 1
5112 5135 1
5112 5136 1
5113 5114 1
5113 5131 1
5113 5132 1
5113 5135 1
5113 5725 1
5113 5728 1
5113 5729 1
5113 5749 1
5114 5115 1
5114 5116 1
5114 5703 1
5114 5728 1
5114 5729 1
5114 5732 1
5115 5116 1
5115 5117 1
5116 5117 1
5116 5135 1
5116 5136 1
5116 5729 1
5116 5732 1
5116 5753 1
5117 5707 1
5117 5732 1
5118 5119 1
5118 5120 1
5118 5122 1
5118 5137 1
5119 5120 1
5119 5122 1
5119 5713 1
5119 5735 1
5119 5737 1
5120 5121 1
5120 5122 1
5120 5123 1
5121 5122 1
5121 5123 1
5121 5124 1
5121 5126 1
5121 5137 1
5121 5140 1
5121 5141 1
5122 5123 1
5122 5137 1
5122 5140 1
5122 5735 1
5122 5737 1
5122 5738 1
5122 5754 1
5123 5124 1
5123 5126 1
5123 5717 1
5123 5737 1
5123 5738 1
5123 5741 1
5124 5125 1
5124 5126 1
5124 5127 1
5125 5126 1
5125 5127 1
5125 5141 1
5125 5144 1
5126 5127 1
5126 5140 1
5126 5141 1
5126 5144 1
5126 5738 1
5126 5741 1
5126 5742 1
5126 5758 1
5127 5721 1
5127 5741 1
5127 5742 1
5128 5129 1
5128 5130 1
5128 5131 1
5129 5130 1
5129 5131 1
5129 5132 1
5129 5134 1
5129 5145 1
5129 5148 1
5129 5149 1
5130 5131 1
5130 5145 1
5130 5148 1
5130 5745 1
5130 5746 1
5130 5762 1
5131 5132 1
5131 5134 1
5131 5725 1
5131 5745 1
5131 5746 1
5131 5749 1
5132 5133 1
5132 5134 1
5132 5135 1
5133 5134 1
5133 5135 1
5133 5136 1
5133 5149 1
5133 5152 1
5134 5135 1
5134 5148 1
5134 5149 1
5134 5152 1
5134 5746 1
5134 5749 1
5134 5750 1
5134 5766 1
5135 5136 1
5135 5729 1
5135 5749 1
5135 5750 1
5135 5753 1
5137 5138 1
5137 5139 1
5137 5140 1
5138 5139 1
5138 5140 1
5138 5141 1
5138 5143 1
5138 5153 1
5138 5155 1
5138 5156 1
5139 5140 1
5139 5153 1
5139 5155 1
5139 5754 1
5139 5755 1
5139 5770 1
5140 5141 1
5140 5143 1
5140 5738 1
5140 5754 1
5140 5755 1
5140 5758 1
5141 5142 1
5141 5143 1
5141 5144 1
5142 5143 1
5142 5144 1
5142 5156 1
5142 5159 1
5143 5144 1
5143 5155 1
5143 5156 1
5143 5159 1
5143 5755 1
5143 5758 1
5143 5759 1
5143 5773 1
5144 5742 1
5144 5758 1
5144 5759 1
5145 5146 1
5145 5147 1
5145 5148 1
5146 5147 1
5146 5148 1
5146 5149 1
5146 5151 1
5146 5160 1
5146 5163 1
5146 5164 1
5147 5148 1
5147 5160 1
5147 5163 1
5147 5762 1
5147 5763 1
5147 5777 1
5148 5149 1
5148 5151 1
5148 5746 1
5148 5762 1
5148 5763 1
5148 5766 1
5149 5150 1
5149 5151 1
5149 5152 1
5150 5151 1
5150 5152 1
5150 5164 1
5150 5166 1
5151 5152 1
5151 5163 1
5151 5164 1
5151 5166 1
5151 5763 1
5151 5766 1
5151 5767 1
5151 5781 1
5152 5750 1
5152 5766 1
5152 5767 1
5153 5154 1
5153 5155 1
5154 5155 1
5154 5156 1
5154 5158 1
5154 5168 1
5154 5169 1
5155 5156 1
5155 5158 1
5155 5755 1
5155 5770 1
5155 5771 1
5155 5773 1
5156 5157 1
5156 5158 1
5156 5159 1
5157 5158 1
5157 5159 1
5157 5169 1
5157 5172 1
5158 5159 1
5158 5168 1
5158 5169 1
5158 5172 1
5158 5771 1
5158 5773 1
5158 5774 1
5158 5786 1
5159 5759 1
5159 5773 1
5159 5774 1
5160 5161 1
5160 5162 1
5160 5163 1
5161 5162 1
5161 5163 1
5161 5164 1
5161 5165 1
5161 5173 1
5161 5176 1
5161 5177 1
5162 5163 1
5162 5173 1
5162 5176 1
5162 5777 1
5162 5778 1
5162 5790 1
5163 5164 1
5163 5165 1
5163 5763 1
5163 5777 1
5163 5778 1
5163 5781 1
5164 5165 1
5164 5166 1
5165 5166 1
5165 5176 1
5165 5177 1
5165 5778 1
5165 5781 1
5165 5794 1
5166 5767 1
5166 5781 1
5167 5168 1
5167 5169 1
5167 5171 1
5167 5180 1
5167 5181 1
5168 5169 1
5168 5171 1
5168 5771 1
5168 5784 1
5168 5786 1
5169 5170 1
5169 5171 1
5169 5172 1
5170 5171 1
5170 5172 1
5170 5181 1
5170 5184 1
5171 5172 1
5171 5180 1
5171 5181 1
5171 5184 1
5171 5784 1
5171 5786 1
5171 5787 1
5171 5798 1
5172 5774 1
5172 5786 1
5172 5787 1
5173 5174 1
5173 5175 1
5173 5176 1
5174 5175 1
5174 5176 1
5174 5177 1
5174 5178 1
5174 5185 1
5174 5188 1
5174 5189 1
5175 5176 1
5175 5185 1
5175 5188 1
5175 5790 1
5175 5791 1
5175 5802 1
5176 5177 1
5176 5178 1
5176 5778 1
5176 5790 1
5176 5791 1
5176 5794 1
5177 5178 1
5178 5188 1
5178 5189 1
5178 5192 1
5178 5791 1
5178 5794 1
5178 5806 1
5179 5180 1
5179 5181 1
5179 5183 1
5179 5195 1
5179 5196 1
5180 5181 1
5180 5183 1
5180 5784 1
5180 5796 1
5180 5798 1
5181 5182 1
5181 5183 1
5181 5184 1
5182 5183 1
5182 5184 1
5182 5196 1
5182 5199 1
5183 5184 1
5183 5195 1
5183 5196 1
5183 5199 1
5183 5796 1
5183 5798 1
5183 5799 1
5183 5813 1
5184 5787 1
5184 5798 1
5184 5799 1
5185 5186 1
5185 5187 1
5185 5188 1
5186 5187 1
5186 5188 1
5186 5189 1
5186 5191 1
5186 5200 1
5186 5203 1
5186 5204 1
5187 5188 1
5187 5200 1
5187 5203 1
5187 5802 1
5187 5803 1
5187 5817 1
5188 5189 1
5188 5191 1
5188 5791 1
5188 5802 1
5188 5803 1
5188 5806 1
5189 5190 1
5189 5191 1
5189 5192 1
5190 5191 1
5190 5192 1
5190 5204 1
5190 5207 1
5191 5192 1
5191 5203 1
5191 5204 1
5191 5207 1
5191 5803 1
5191 5806 1
5191 5807 1
5191 5821 1
5192 5806 1
5192 5807 1
5193 5194 1
5193 5195 1
5193 5196 1
5193 5198 1
5193 5208 1
5193 5211 1
5193 5212 1
5194 5195 1
5194 5208 1
5194 5211 1
5194 5810 1
5194 5825 1
5195 5196 1
5195 5198 1
5195 5796 1
5195 5810 1
5195 5813 1
5196 5197 1
5196 5198 1
5196 5199 1
5197 5198 1
5197 5199 1
5197 5212 1
5197 5215 1
5198 5199 1
5198 5211 1
5198 5212 1
5198 5215 1
5198 5810 1
5198 5813 1
5198 5814 1
5198 5829 1
5199 5799 1
5199 5813 1
5199 5814 1
5200 5201 1
5200 5202 1
5200 5203 1
5201 5202 1
5201 5203 1
5201 5204 1
5201 5206 1
5201 5216 1
5201 5219 1
5201 5220 1
5202 5203 1
5202 5216 1
5202 5219 1
5202 5817 1
5202 5818 1
5202 5833 1
5203 5204 1
5203 5206 1
5203 5803 1
5203 5817 1
5203 5818 1
5203 5821 1
5204 5205 1
5204 5206 1
5204 5207 1
5205 5206 1
5205 5207 1
5205 5220 1
5205 5223 1
5205 5224 1
5206 5207 1
5206 5219 1
5206 5220 1
5206 5223 1
5206 5818 1
5206 5821 1
5206 5822 1
5206 5837 1
5207 5807 1
5207 5821 1
5207 5822 1
5208 5209 1
5208 5210 1
5208 5211 1
5209 5210 1
5209 5211 1
5209 5212 1
5209 5214 1
5209 5228 1
5209 5231 1
5209 5232 1
5210 5211 1
5210 5227 1
5210 5228 1
5210 5231 1
5210 5825 1
5210 5826 1
5210 5845 1
5211 5212 1
5211 5214 1
5211 5810 1
5211 5825 1
5211 5826 1
5211 5829 1
5212 5213 1
5212 5214 1
5212 5215 1
5213 5214 1
5213 5215 1
5213 5232 1
5213 5235 1
5214 5215 1
5214 5231 1
5214 5232 1
5214 5235 1
5214 5826 1
5214 5829 1
5214 5830 1
5214 5849 1
5215 5814 1
5215 5829 1
5215 5830 1
5216 5217 1
5216 5218 1
5216 5219 1
5217 5218 1
5217 5219 1
5217 5220 1
5217 5222 1
5217 5236 1
5217 5239 1
5217 5240 1
5218 5219 1
5218 5236 1
5218 5239 1
5218 5833 1
5218 5834 1
5218 5853 1
5219 5220 1
5219 5222 1
5219 5818 1
5219 5833 1
5219 5834 1
5219 5837 1
5220 5221 1
5220 5222 1
5220 5223 1
5221 5222 1
5221 5223 1
5221 5224 1
5221 5225 1
5221 5240 1
5221 5243 1
5221 5244 1
5222 5223 1
5222 5239 1
5222 5240 1
5222 5243 1
5222 5834 1
5222 5837 1
5222 5838 1
5222 5857 1
5223 5224 1
5223 5225 1
5223 5822 1
5223 5837 1
5223 5838 1
5223 5841 1
5224 5225 1
5225 5243 1
5225 5244 1
5225 5247 1
5225 5838 1
5225 5841 1
5225 5861 1
5226 5227 1
5226 5228 1
5226 5230 1
5226 5250 1
5226 5253 1
5226 5254 1
5227 5228 1
5227 5230 1
5227 5843 1
5227 5845 1
5228 5229 1
5228 5230 1
5228 5231 1
5229 5230 1
5229 5231 1
5229 5232 1
5229 5234 1
5229 5254 1
5229 5257 1
5229 5258 1
5230 5231 1
5230 5253 1
5230 5254 1
5230 5257 1
5230 5843 1
5230 5845 1
5230 5846 1
5230 5871 1
5231 5232 1
5231 5234 1
5231 5826 1
5231 5845 1
5231 5846 1
5231 5849 1
5232 5233 1
5232 5234 1
5232 5235 1
5233 5234 1
5233 5235 1
5233 5258 1
5233 5261 1
5234 5235 1
5234 5257 1
5234 5258 1
5234 5261 1
5234 5846 1
5234 5849 1
5234 5850 1
5234 5875 1
5235 5830 1
5235 5849 1
5235 5850 1
5236 5237 1
5236 5238 1
5236 5239 1
5237 5238 1
5237 5239 1
5237 5240 1
5237 5242 1
5237 5262 1
5237 5265 1
5237 5266 1
5238 5239 1
5238 5262 1
5238 5265 1
5238 5853 1
5238 5854 1
5238 5879 1
5239 5240 1
5239 5242 1
5239 5834 1
5239 5853 1
5239 5854 1
5239 5857 1
5240 5241 1
5240 5242 1
5240 5243 1
5241 5242 1
5241 5243 1
5241 5244 1
5241 5246 1
5241 5266 1
5241 5269 1
5241 5270 1
5242 5243 1
5242 5265 1
5242 5266 1
5242 5269 1
5242 5854 1
5242 5857 1
5242 5858 1
5242 5883 1
5243 5244 1
5243 5246 1
5243 5838 1
5243 5857 1
5243 5858 1
5243 5861 1
5244 5245 1
5244 5246 1
5244 5247 1
5245 5246 1
5245 5247 1
5245 5248 1
5245 5270 1
5245 5273 1
5245 5274 1
5246 5247 1
5246 5269 1
5246 5270 1
5246 5273 1
5246 5858 1
5246 5861 1
5246 5862 1
5246 5887 1
5247 5248 1
5247 5861 1
5247 5862 1
5248 5273 1
5248 5274 1
5248 5277 1
5248 5862 1
5248 5891 1
5249 5250 1
5249 5252 1
5249 5282 1
5249 5283 1
5250 5251 1
5250 5252 1
5250 5253 1
5251 5252 1
5251 5253 1
5251 5254 1
5251 5256 1
5251 5283 1
5251 5286 1
5251 5287 1
5252 5253 1
5252 5282 1
5252 5283 1
5252 5286 1
5252 5866 1
5252 5867 1
5252 5868 1
5252 5900 1
5253 5254 1
5253 5256 1
5253 5843 1
5253 5867 1
5253 5868 1
5253 5871 1
5254 5255 1
5254 5256 1
5254 5257 1
5255 5256 1
5255 5257 1
5255 5258 1
5255 5260 1
5255 5287 1
5255 5290 1
5255 5291 1
5256 5257 1
5256 5286 1
5256 5287 1
5256 5290 1
5256 5868 1
5256 5871 1
5256 5872 1
5256 5904 1
5257 5258 1
5257 5260 1
5257 5846 1
5257 5871 1
5257 5872 1
5257 5875 1
5258 5259 1
5258 5260 1
5258 5261 1
5259 5260 1
5259 5261 1
5259 5291 1
5259 5294 1
5260 5261 1
5260 5290 1
5260 5291 1
5260 5294 1
5260 5872 1
5260 5875 1
5260 5876 1
5260 5908 1
5261 5850 1
5261 5875 1
5261 5876 1
5262 5263 1
5262 5264 1
5262 5265 1
5263 5264 1
5263 5265 1
5263 5266 1
5263 5268 1
5263 5295 1
5263 5298 1
5263 5299 1
5264 5265 1
5264 5295 1
5264 5298 1
5264 5879 1
5264 5880 1
5264 5912 1
5265 5266 1
5265 5268 1
5265 5854 1
5265 5879 1
5265 5880 1
5265 5883 1
5266 5267 1
5266 5268 1
5266 5269 1
5267 5268 1
5267 5269 1
5267 5270 1
5267 5272 1
5267 5299 1
5267 5302 1
5267 5303 1
5268 5269 1
5268 5298 1
5268 5299 1
5268 5302 1
5268 5880 1
5268 5883 1
5268 5884 1
5268 5916 1
5269 5270 1
5269 5272 1
5269 5858 1
5269 5883 1
5269 5884 1
5269 5887 1
5270 5271 1
5270 5272 1
5270 5273 1
5271 5272 1
5271 5273 1
5271 5274 1
5271 5276 1
5271 5303 1
5271 5306 1
5271 5307 1
5272 5273 1
5272 5302 1
5272 5303 1
5272 5306 1
5272 5884 1
5272 5887 1
5272 5888 1
5272 5920 1
5273 5274 1
5273 5276 1
5273 5862 1
5273 5887 1
5273 5888 1
5273 5891 1
5274 5275 1
5274 5276 1
5274 5277 1
5275 5276 1
5275 5277 1
5275 5278 1
5275 5307 1
5275 5310 1
5275 5311 1
5276 5277 1
5276 5306 1
5276 5307 1
5276 5310 1
5276 5888 1
5276 5891 1
5276 5892 1
5276 5924 1
5277 5278 1
5277 5891 1
5277 5892 1
5278 5310 1
5278 5311 1
5278 5314 1
5278 5892 1
5278 5928 1
5279 5281 1
5279 5319 1
5279 5322 1
5279 5323 1
5280 5281 1
5280 5282 1
5280 5283 1
5280 5285 1
5280 5323 1
5280 5326 1
5280 5327 1
5281 5282 1
5281 5322 1
5281 5323 1
5281 5326 1
5281 5896 1
5281 5897 1
5281 5940 1
5282 5283 1
5282 5285 1
5282 5866 1
5282 5897 1
5282 5900 1
5283 5284 1
5283 5285 1
5283 5286 1
5284 5285 1
5284 5286 1
5284 5287 1
5284 5289 1
5284 5327 1
5284 5330 1
5284 5331 1
5285 5286 1
5285 5326 1
5285 5327 1
5285 5330 1
5285 5897 1
5285 5900 1
5285 5901 1
5285 5944 1
5286 5287 1
5286 5289 1
5286 5868 1
5286 5900 1
5286 5901 1
5286 5904 1
5287 5288 1
5287 5289 1
5287 5290 1
5288 5289 1
5288 5290 1
5288 5291 1
5288 5293 1
5288 5331 1
5288 5334 1
5288 5335 1
5289 5290 1
5289 5330 1
5289 5331 1
5289 5334 1
5289 5901 1
5289 5904 1
5289 5905 1
5289 5948 1
5290 5291 1
5290 5293 1
5290 5872 1
5290 5904 1
5290 5905 1
5290 5908 1
5291 5292 1
5291 5293 1
5291 5294 1
5292 5293 1
5292 5294 1
5292 5335 1
5292 5338 1
5293 5294 1
5293 5334 1
5293 5335 1
5293 5338 1
5293 5905 1
5293 5908 1
5293 5909 1
5293 5952 1
5294 5876 1
5294 5908 1
5294 5909 1
5295 5296 1
5295 5297 1
5295 5298 1
5296 5297 1
5296 5298 1
5296 5299 1
5296 5301 1
5296 5339 1
5296 5342 1
5296 5343 1
5297 5298 1
5297 5339 1
5297 5342 1
5297 5912 1
5297 5913 1
5297 5956 1
5298 5299 1
5298 5301 1
5298 5880 1
5298 5912 1
5298 5913 1
5298 5916 1
5299 5300 1
5299 5301 1
5299 5302 1
5300 5301 1
5300 5302 1
5300 5303 1
5300 5305 1
5300 5343 1
5300 5346 1
5300 5347 1
5301 5302 1
5301 5342 1
5301 5343 1
5301 5346 1
5301 5913 1
5301 5916 1
5301 5917 1
5301 5960 1
5302 5303 1
5302 5305 1
5302 5884 1
5302 5916 1
5302 5917 1
5302 5920 1
5303 5304 1
5303 5305 1
5303 5306 1
5304 5305 1
5304 5306 1
5304 5307 1
5304 5309 1
5304 5347 1
5304 5350 1
5304 5351 1
5305 5306 1
5305 5346 1
5305 5347 1
5305 5350 1
5305 5917 1
5305 5920 1
5305 5921 1
5305 5964 1
5306 5307 1
5306 5309 1
5306 5888 1
5306 5920 1
5306 5921 1
5306 5924 1
5307 5308 1
5307 5309 1
5307 5310 1
5308 5309 1
5308 5310 1
5308 5311 1
5308 5313 1
5308 5351 1
5308 5354 1
5308 5355 1
5309 5310 1
5309 5350 1
5309 5351 1
5309 5354 1
5309 5921 1
5309 5924 1
5309 5925 1
5309 5968 1
5310 5311 1
5310 5313 1
5310 5892 1
5310 5924 1
5310 5925 1
5310 5928 1
5311 5312 1
5311 5313 1
5311 5314 1
5312 5313 1
5312 5314 1
5312 5316 1
5312 5355 1
5312 5358 1
5312 5359 1
5313 5314 1
5313 5354 1
5313 5355 1
5313 5358 1
5313 5925 1
5313 5928 1
5313 5929 1
5313 5972 1
5314 5316 1
5314 5928 1
5314 5929 1
5315 5316 1
5315 5359 1
5315 5362 1
5315 5363 1
5316 5358 1
5316 5359 1
5316 5362 1
5316 5929 1
5316 5932 1
5316 5976 1
5317 5318 1
5317 5319 1
5317 5321 1
5317 5381 1
5317 5384 1
5317 5385 1
5318 5380 1
5318 5381 1
5318 5384 1
5318 5934 1
5318 5998 1
5319 5320 1
5319 5321 1
5319 5322 1
5320 5321 1
5320 5322 1
5320 5323 1
5320 5325 1
5320 5385 1
5320 5388 1
5320 5389 1
5321 5322 1
5321 5384 1
5321 5385 1
5321 5388 1
5321 5934 1
5321 5936 1
5321 5937 1
5321 6002 1
5322 5323 1
5322 5325 1
5322 5896 1
5322 5936 1
5322 5937 1
5322 5940 1
5323 5324 1
5323 5325 1
5323 5326 1
5324 5325 1
5324 5326 1
5324 5327 1
5324 5329 1
5324 5389 1
5324 5392 1
5324 5393 1
5325 5326 1
5325 5388 1
5325 5389 1
5325 5392 1
5325 5937 1
5325 5940 1
5325 5941 1
5325 6006 1
5326 5327 1
5326 5329 1
5326 5897 1
5326 5940 1
5326 5941 1
5326 5944 1
5327 5328 1
5327 5329 1
5327 5330 1
5328 5329 1
5328 5330 1
5328 5331 1
5328 5333 1
5328 5393 1
5328 5396 1
5328 5397 1
5329 5330 1
5329 5392 1
5329 5393 1
5329 5396 1
5329 5941 1
5329 5944 1
5329 5945 1
5329 6010 1
5330 5331 1
5330 5333 1
5330 5901 1
5330 5944 1
5330 5945 1
5330 5948 1
5331 5332 1
5331 5333 1
5331 5334 1
5332 5333 1
5332 5334 1
5332 5335 1
5332 5337 1
5332 5397 1
5332 5400 1
5332 5401 1
5333 5334 1
5333 5396 1
5333 5397 1
5333 5400 1
5333 5945 1
5333 5948 1
5333 5949 1
5333 6014 1
5334 5335 1
5334 5337 1
5334 5905 1
5334 5948 1
5334 5949 1
5334 5952 1
5335 5336 1
5335 5337 1
5335 5338 1
5336 5337 1
5336 5338 1
5336 5401 1
5336 5404 1
5337 5338 1
5337 5400 1
5337 5401 1
5337 5404 1
5337 5949 1
5337 5952 1
5337 5953 1
5337 6018 1
5338 5909 1
5338 5952 1
5338 5953 1
5339 5340 1
5339 5341 1
5339 5342 1
5340 5341 1
5340 5342 1
5340 5343 1
5340 5345 1
5340 5405 1
5340 5408 1
5340 5409 1
5341 5342 1
5341 5405 1
5341 5408 1
5341 5956 1
5341 5957 1
5341 6022 1
5342 5343 1
5342 5345 1
5342 5913 1
5342 5956 1
5342 5957 1
5342 5960 1
5343 5344 1
5343 5345 1
5343 5346 1
5344 5345 1
5344 5346 1
5344 5347 1
5344 5349 1
5344 5409 1
5344 5412 1
5344 5413 1
5345 5346 1
5345 5408 1
5345 5409 1
5345 5412 1
5345 5957 1
5345 5960 1
5345 5961 1
5345 6026 1
5346 5347 1
5346 5349 1
5346 5917 1
5346 5960 1
5346 5961 1
5346 5964 1
5347 5348 1
5347 5349 1
5347 5350 1
5348 5349 1
5348 5350 1
5348 5351 1
5348 5353 1
5348 5413 1
5348 5416 1
5348 5417 1
5349 5350 1
5349 5412 1
5349 5413 1
5349 5416 1
5349 5961 1
5349 5964 1
5349 5965 1
5349 6030 1
5350 5351 1
5350 5353 1
5350 5921 1
5350 5964 1
5350 5965 1
5350 5968 1
5351 5352 1
5351 5353 1
5351 5354 1
5352 5353 1
5352 5354 1
5352 5355 1
5352 5357 1
5352 5417 1
5352 5420 1
5352 5421 1
5353 5354 1
5353 5416 1
5353 5417 1
5353 5420 1
5353 5965 1
5353 5968 1
5353 5969 1
5353 6034 1
5354 5355 1
5354 5357 1
5354 5925 1
5354 5968 1
5354 5969 1
5354 5972 1
5355 5356 1
5355 5357 1
5355 5358 1
5356 5357 1
5356 5358 1
5356 5359 1
5356 5361 1
5356 5421 1
5356 5424 1
5356 5425 1
5357 5358 1
5357 5420 1
5357 5421 1
5357 5424 1
5357 5969 1
5357 5972 1
5357 5973 1
5357 6038 1
5358 5359 1
5358 5361 1
5358 5929 1
5358 5972 1
5358 5973 1
5358 5976 1
5359 5360 1
5359 5361 1
5359 5362 1
5360 5361 1
5360 5362 1
5360 5363 1
5360 5365 1
5360 5425 1
5360 5428 1
5360 5429 1
5361 5362 1
5361 5424 1
5361 5425 1
5361 5428 1
5361 5973 1
5361 5976 1
5361 5977 1
5361 6042 1
5362 5363 1
5362 5365 1
5362 5932 1
5362 5976 1
5362 5977 1
5362 5980 1
5363 5364 1
5363 5365 1
5363 5366 1
5364 5365 1
5364 5366 1
5364 5367 1
5364 5369 1
5364 5429 1
5364 5432 1
5364 5433 1
5365 5366 1
5365 5428 1
5365 5429 1
5365 5432 1
5365 5977 1
5365 5980 1
5365 5981 1
5365 6046 1
5366 5367 1
5366 5369 1
5366 5980 1
5366 5981 1
5366 5984 1
5367 5368 1
5367 5369 1
5368 5369 1
5368 5371 1
5368 5433 1
5368 5436 1
5368 5437 1
5369 5432 1
5369 5433 1
5369 5436 1
5369 5981 1
5369 5984 1
5369 5985 1
5369 6050 1
5370 5371 1
5370 5373 1
5370 5437 1
5370 5440 1
5370 5441 1
5371 5436 1
5371 5437 1
5371 5440 1
5371 5985 1
5371 5987 1
5371 6054 1
5372 5373 1
5372 5375 1
5372 5441 1
5372 5444 1
5372 5445 1
5373 5440 1
5373 5441 1
5373 5444 1
5373 5987 1
5373 5989 1
5373 6058 1
5374 5375 1
5374 5376 1
5374 5377 1
5374 5379 1
5374 5445 1
5374 5448 1
5374 5449 1
5375 5376 1
5375 5444 1
5375 5445 1
5375 5448 1
5375 5989 1
5375 5991 1
5375 6062 1
5376 5377 1
5376 5379 1
5376 5991 1
5376 5994 1
5377 5378 1
5377 5379 1
5377 5380 1
5378 5379 1
5378 5380 1
5378 5381 1
5378 5383 1
5378 5449 1
5378 5452 1
5378 5453 1
5379 5380 1
5379 5448 1
5379 5449 1
5379 5452 1
5379 5991 1
5379 5994 1
5379 5995 1
5379 6066 1
5380 5381 1
5380 5383 1
5380 5994 1
5380 5995 1
5380 5998 1
5381 5382 1
5381 5383 1
5381 5384 1
5382 5383 1
5382 5384 1
5382 5385 1
5382 5387 1
5382 5453 1
5382 5456 1
5382 5457 1
5383 5384 1
5383 5452 1
5383 5453 1
5383 5456 1
5383 5995 1
5383 5998 1
5383 5999 1
5383 6070 1
5384 5385 1
5384 5387 1
5384 5934 1
5384 5998 1
5384 5999 1
5384 6002 1
5385 5386 1
5385 5387 1
5385 5388 1
5386 5387 1
5386 5388 1
5386 5389 1
5386 5391 1
5386 5457 1
5386 5460 1
5386 5461 1
5387 5388 1
5387 5456 1
5387 5457 1
5387 5460 1
5387 5999 1
5387 6002 1
5387 6003 1
5387 6074 1
5388 5389 1
5388 5391 1
5388 5937 1
5388 6002 1
5388 6003 1
5388 6006 1
5389 5390 1
5389 5391 1
5389 5392 1
5390 5391 1
5390 5392 1
5390 5393 1
5390 5395 1
5390 5461 1
5390 5464 1
5390 5465 1
5391 5392 1
5391 5460 1
5391 5461 1
5391 5464 1
5391 6003 1
5391 6006 1
5391 6007 1
5391 6078 1
5392 5393 1
5392 5395 1
5392 5941 1
5392 6006 1
5392 6007 1
5392 6010 1
5393 5394 1
5393 5395 1
5393 5396 1
5394 5395 1
5394 5396 1
5394 5397 1
5394 5399 1
5394 5465 1
5394 5468 1
5394 5469 1
5395 5396 1
5395 5464 1
5395 5465 1
5395 5468 1
5395 6007 1
5395 6010 1
5395 6011 1
5395 6082 1
5396 5397 1
5396 5399 1
5396 5945 1
5396 6010 1
5396 6011 1
5396 6014 1
5397 5398 1
5397 5399 1
5397 5400 1
5398 5399 1
5398 5400 1
5398 5401 1
5398 5403 1
5398 5469 1
5398 5472 1
5398 5473 1
5399 5400 1
5399 5468 1
5399 5469 1
5399 5472 1
5399 6011 1
5399 6014 1
5399 6015 1
5399 6086 1
5400 5401 1
5400 5403 1
5400 5949 1
5400 6014 1
5400 6015 1
5400 6018 1
5401 5402 1
5401 5403 1
5401 5404 1
5402 5403 1
5402 5404 1
5402 5473 1
5402 5476 1
5403 5404 1
5403 5472 1
5403 5473 1
5403 5476 1
5403 6015 1
5403 6018 1
5403 6019 1
5403 6090 1
5404 5953 1
5404 6018 1
5404 6019 1
5405 5406 1
5405 5407 1
5405 5408 1
5406 5407 1
5406 5408 1
5406 5409 1
5406 5411 1
5407 5408 1
5407 6022 1
5407 6023 1
5408 5409 1
5408 5411 1
5408 5957 1
5408 6022 1
5408 6023 1
5408 6026 1
5409 5410 1
5409 5411 1
5409 5412 1
5410 5411 1
5410 5412 1
5410 5413 1
5410 5415 1
5411 5412 1
5411 6023 1
5411 6026 1
5411 6027 1
5412 5413 1
5412 5415 1
5412 5961 1
5412 6026 1
5412 6027 1
5412 6030 1
5413 5414 1
5413 5415 1
5413 5416 1
5414 5415 1
5414 5416 1
5414 5417 1
5414 5419 1
5415 5416 1
5415 6027 1
5415 6030 1
5415 6031 1
5416 5417 1
5416 5419 1
5416 5965 1
5416 6030 1
5416 6031 1
5416 6034 1
5417 5418 1
5417 5419 1
5417 5420 1
5418 5419 1
5418 5420 1
5418 5421 1
5418 5423 1
5419 5420 1
5419 6031 1
5419 6034 1
5419 6035 1
5420 5421 1
5420 5423 1
5420 5969 1
5420 6034 1
5420 6035 1
5420 6038 1
5421 5422 1
5421 5423 1
5421 5424 1
5422 5423 1
5422 5424 1
5422 5425 1
5422 5427 1
5423 5424 1
5423 6035 1
5423 6038 1
5423 6039 1
5424 5425 1
5424 5427 1
5424 5973 1
5424 6038 1
5424 6039 1
5424 6042 1
5425 5426 1
5425 5427 1
5425 5428 1
5426 5427 1
5426 5428 1
5426 5429 1
5426 5431 1
5427 5428 1
5427 6039 1
5427 6042 1
5427 6043 1
5428 5429 1
5428 5431 1
5428 5977 1
5428 6042 1
5428 6043 1
5428 6046 1
5429 5430 1
5429 5431 1
5429 5432 1
5430 5431 1
5430 5432 1
5430 5433 1
5430 5435 1
5431 5432 1
5431 6043 1
5431 6046 1
5431 6047 1
5432 5433 1
5432 5435 1
5432 5981 1
5432 6046 1
5432 6047 1
5432 6050 1
5433 5434 1
5433 5435 1
5433 5436 1
5434 5435 1
5434 5436 1
5434 5437 1
5434 5439 1
5435 5436 1
5435 6047 1
5435 6050 1
5435 6051 1
5436 5437 1
5436 5439 1
5436 5985 1
5436 6050 1
5436 6051 1
5436 6054 1
5437 5438 1
5437 5439 1
5437 5440 1
5438 5439 1
5438 5440 1
5438 5441 1
5438 5443 1
5439 5440 1
5439 6051 1
5439 6054 1
5439 6055 1
5440 5441 1
5440 5443 1
5440 5987 1
5440 6054 1
5440 6055 1
5440 6058 1
5441 5442 1
5441 5443 1
5441 5444 1
5442 5443 1
5442 5444 1
5442 5445 1
5442 5447 1
5443 5444 1
5443 6055 1
5443 6058 1
5443 6059 1
5444 5445 1
5444 5447 1
5444 5989 1
5444 6058 1
5444 6059 1
5444 6062 1
5445 5446 1
5445 5447 1
5445 5448 1
5446 5447 1
5446 5448 1
5446 5449 1
5446 5451 1
5447 5448 1
5447 6059 1
5447 6062 1
5447 6063 1
5448 5449 1
5448 5451 1
5448 5991 1
5448 6062 1
5448 6063 1
5448 6066 1
5449 5450 1
5449 5451 1
5449 5452 1
5450 5451 1
5450 5452 1
5450 5453 1
5450 5455 1
5451 5452 1
5451 6063 1
5451 6066 1
5451 6067 1
5452 5453 1
5452 5455 1
5452 5995 1
5452 6066 1
5452 6067 1
5452 6070 1
5453 5454 1
5453 5455 1
5453 5456 1
5454 5455 1
5454 5456 1
5454 5457 1
5454 5459 1
5455 5456 1
5455 6067 1
5455 6070 1
5455 6071 1
5456 5457 1
5456 5459 1
5456 5999 1
5456 6070 1
5456 6071 1
5456 6074 1
5457 5458 1
5457 5459 1
5457 5460 1
5458 5459 1
5458 5460 1
5458 5461 1
5458 5463 1
5459 5460 1
5459 6071 1
5459 6074 1
5459 6075 1
5460 5461 1
5460 5463 1
5460 6003 1
5460 6074 1
5460 6075 1
5460 6078 1
5461 5462 1
5461 5463 1
5461 5464 1
5462 5463 1
5462 5464 1
5462 5465 1
5462 5467 1
5463 5464 1
5463 6075 1
5463 6078 1
5463 6079 1
5464 5465 1
5464 5467 1
5464 6007 1
5464 6078 1
5464 6079 1
5464 6082 1
5465 5466 1
5465 5467 1
5465 5468 1
5466 5467 1
5466 5468 1
5466 5469 1
5466 5471 1
5467 5468 1
5467 6079 1
5467 6082 1
5467 6083 1
5468 5469 1
5468 5471 1
5468 6011 1
5468 6082 1
5468 6083 1
5468 6086 1
5469 5470 1
5469 5471 1
5469 5472 1
5470 5471 1
5470 5472 1
5470 5473 1
5470 5475 1
5471 5472 1
5471 6083 1
5471 6086 1
5471 6087 1
5472 5473 1
5472 5475 1
5472 6015 1
5472 6086 1
5472 6087 1
5472 6090 1
5473 5474 1
5473 5475 1
5473 5476 1
5474 5475 1
5474 5476 1
5475 5476 1
5475 6087 1
5475 6090 1
5475 6091 1
5476 6019 1
5476 6090 1
5476 6091 1
5477 5478 1
5477 5479 1
5477 5480 1
5478 5479 1
5478 5480 1
5478 5481 1
5478 5483 1
5478 5549 1
5478 5552 1
5478 5553 1
5479 5480 1
5479 5549 1
5479 5552 1
5479 6094 1
5479 6095 1
5479 6166 1
5480 5481 1
5480 5483 1
5480 6094 1
5480 6095 1
5480 6098 1
5481 5482 1
5481 5483 1
5481 5484 1
5482 5483 1
5482 5484 1
5482 5485 1
5482 5487 1
5482 5553 1
5482 5556 1
5482 5557 1
5483 5484 1
5483 5552 1
5483 5553 1
5483 5556 1
5483 6095 1
5483 6098 1
5483 6099 1
5483 6170 1
5484 5485 1
5484 5487 1
5484 6098 1
5484 6099 1
5484 6102 1
5485 5486 1
5485 5487 1
5485 5488 1
5486 5487 1
5486 5488 1
5486 5489 1
5486 5491 1
5486 5557 1
5486 5560 1
5486 5561 1
5487 5488 1
5487 5556 1
5487 5557 1
5487 5560 1
5487 6099 1
5487 6102 1
5487 6103 1
5487 6174 1
5488 5489 1
5488 5491 1
5488 6102 1
5488 6103 1
5488 6106 1
5489 5490 1
5489 5491 1
5489 5492 1
5490 5491 1
5490 5492 1
5490 5493 1
5490 5495 1
5490 5561 1
5490 5564 1
5490 5565 1
5491 5492 1
5491 5560 1
5491 5561 1
5491 5564 1
5491 6103 1
5491 6106 1
5491 6107 1
5491 6178 1
5492 5493 1
5492 5495 1
5492 6106 1
5492 6107 1
5492 6110 1
5493 5494 1
5493 5495 1
5493 5496 1
5494 5495 1
5494 5496 1
5494 5497 1
5494 5499 1
5494 5565 1
5494 5568 1
5494 5569 1
5495 5496 1
5495 5564 1
5495 5565 1
5495 5568 1
5495 6107 1
5495 6110 1
5495 6111 1
5495 6182 1
5496 5497 1
5496 5499 1
5496 6110 1
5496 6111 1
5496 6114 1
5497 5498 1
5497 5499 1
5497 5500 1
5498 5499 1
5498 5500 1
5498 5501 1
5498 5503 1
5498 5569 1
5498 5572 1
5498 5573 1
5499 5500 1
5499 5568 1
5499 5569 1
5499 5572 1
5499 6111 1
5499 6114 1
5499 6115 1
5499 6186 1
5500 5501 1
5500 5503 1
5500 6114 1
5500 6115 1
5500 6118 1
5501 5502 1
5501 5503 1
5501 5504 1
5502 5503 1
5502 5504 1
5502 5505 1
5502 5507 1
5502 5573 1
5502 5576 1
5502 5577 1
5503 5504 1
5503 5572 1
5503 5573 1
5503 5576 1
5503 6115 1
5503 6118 1
5503 6119 1
5503 6190 1
5504 5505 1
5504 5507 1
5504 6118 1
5504 6119 1
5504 6122 1
5505 5506 1
5505 5507 1
5505 5508 1
5506 5507 1
5506 5508 1
5506 5509 1
5506 5511 1
5506 5577 1
5506 5580 1
5506 5581 1
5507 5508 1
5507 5576 1
5507 5577 1
5507 5580 1
5507 6119 1
5507 6122 1
5507 6123 1
5507 6194 1
5508 5509 1
5508 5511 1
5508 6122 1
5508 6123 1
5508 6126 1
5509 5510 1
5509 5511 1
5509 5512 1
5510 5511 1
5510 5512 1
5510 5513 1
5510 5515 1
5510 5581 1
5510 5583 1
5510 5584 1
5511 5512 1
5511 5580 1
5511 5581 1
5511 5583 1
5511 6123 1
5511 6126 1
5511 6127 1
5511 6198 1
5512 5513 1
5512 5515 1
5512 6126 1
5512 6127 1
5512 6130 1
5513 5514 1
5513 5515 1
5513 5516 1
5514 5515 1
5514 5516 1
5514 5517 1
5514 5519 1
5514 5584 1
5514 5585 1
5514 5586 1
5515 5516 1
5515 5583 1
5515 5584 1
5515 5585 1
5515 6127 1
5515 6130 1
5515 6131 1
5515 6201 1
5516 5517 1
5516 5519 1
5516 6130 1
5516 6131 1
5516 6134 1
5517 5518 1
5517 5519 1
5517 5520 1
5518 5519 1
5518 5520 1
5518 5521 1
5518 5523 1
5518 5586 1
5518 5589 1
5518 5590 1
5519 5520 1
5519 5585 1
5519 5586 1
5519 5589 1
5519 6131 1
5519 6134 1
5519 6135 1
5519 6203 1
5520 5521 1
5520 5523 1
5520 6134 1
5520 6135 1
5520 6138 1
5521 5522 1
5521 5523 1
5521 5524 1
5522 5523 1
5522 5524 1
5522 5525 1
5522 5527 1
5522 5590 1
5522 5593 1
5522 5594 1
5523 5524 1
5523 5589 1
5523 5590 1
5523 5593 1
5523 6135 1
5523 6138 1
5523 6139 1
5523 6207 1
5524 5525 1
5524 5527 1
5524 6138 1
5524 6139 1
5524 6142 1
5525 5526 1
5525 5527 1
5525 5528 1
5526 5527 1
5526 5528 1
5526 5529 1
5526 5531 1
5526 5594 1
5526 5597 1
5526 5598 1
5527 5528 1
5527 5593 1
5527 5594 1
5527 5597 1
5527 6139 1
5527 6142 1
5527 6143 1
5527 6211 1
5528 5529 1
5528 5531 1
5528 6142 1
5528 6143 1
5528 6146 1
5529 5530 1
5529 5531 1
5529 5532 1
5530 5531 1
5530 5532 1
5530 5533 1
5530 5535 1
5530 5598 1
5530 5601 1
5530 5602 1
5531 5532 1
5531 5597 1
5531 5598 1
5531 5601 1
5531 6143 1
5531 6146 1
5531 6147 1
5531 6215 1
5532 5533 1
5532 5535 1
5532 6146 1
5532 6147 1
5532 6150 1
5533 5534 1
5533 5535 1
5533 5536 1
5534 5535 1
5534 5536 1
5534 5537 1
5534 5539 1
5534 5602 1
5534 5605 1
5534 5606 1
5535 5536 1
5535 5601 1
5535 5602 1
5535 5605 1
5535 6147 1
5535 6150 1
5535 6151 1
5535 6219 1
5536 5537 1
5536 5539 1
5536 6150 1
5536 6151 1
5536 6154 1
5537 5538 1
5537 5539 1
5537 5540 1
5538 5539 1
5538 5540 1
5538 5541 1
5538 5543 1
5538 5606 1
5538 5609 1
5538 5610 1
5539 5540 1
5539 5605 1
5539 5606 1
5539 5609 1
5539 6151 1
5539 6154 1
5539 6155 1
5539 6223 1
5540 5541 1
5540 5543 1
5540 6154 1
5540 6155 1
5540 6158 1
5541 5542 1
5541 5543 1
5541 5544 1
5542 5543 1
5542 5544 1
5542 5545 1
5542 5547 1
5542 5610 1
5542 5613 1
5542 5614 1
5543 5544 1
5543 5609 1
5543 5610 1
5543 5613 1
5543 6155 1
5543 6158 1
5543 6159 1
5543 6227 1
5544 5545 1
5544 5547 1
5544 6158 1
5544 6159 1
5544 6162 1
5545 5546 1
5545 5547 1
5545 5548 1
5546 5547 1
5546 5548 1
5546 5614 1
5546 5617 1
5547 5548 1
5547 5613 1
5547 5614 1
5547 5617 1
5547 6159 1
5547 6162 1
5547 6163 1
5547 6231 1
5548 6162 1
5548 6163 1
5549 5550 1
5549 5551 1
5549 5552 1
5550 5551 1
5550 5552 1
5550 5553 1
5550 5555 1
5550 5618 1
5550 5621 1
5550 5622 1
5551 5552 1
5551 5618 1
5551 5621 1
5551 6166 1
5551 6167 1
5551 6235 1
5552 5553 1
5552 5555 1
5552 6095 1
5552 6166 1
5552 6167 1
5552 6170 1
5553 5554 1
5553 5555 1
5553 5556 1
5554 5555 1
5554 5556 1
5554 5557 1
5554 5559 1
5554 5622 1
5554 5625 1
5554 5626 1
5555 5556 1
5555 5621 1
5555 5622 1
5555 5625 1
5555 6167 1
5555 6170 1
5555 6171 1
5555 6239 1
5556 5557 1
5556 5559 1
5556 6099 1
5556 6170 1
5556 6171 1
5556 6174 1
5557 5558 1
5557 5559 1
5557 5560 1
5558 5559 1
5558 5560 1
5558 5561 1
5558 5563 1
5558 5626 1
5558 5629 1
5558 5630 1
5559 5560 1
5559 5625 1
5559 5626 1
5559 5629 1
5559 6171 1
5559 6174 1
5559 6175 1
5559 6243 1
5560 5561 1
5560 5563 1
5560 6103 1
5560 6174 1
5560 6175 1
5560 6178 1
5561 5562 1
5561 5563 1
5561 5564 1
5562 5563 1
5562 5564 1
5562 5565 1
5562 5567 1
5562 5630 1
5562 5633 1
5562 5634 1
5563 5564 1
5563 5629 1
5563 5630 1
5563 5633 1
5563 6175 1
5563 6178 1
5563 6179 1
5563 6247 1
5564 5565 1
5564 5567 1
5564 6107 1
5564 6178 1
5564 6179 1
5564 6182 1
5565 5566 1
5565 5567 1
5565 5568 1
5566 5567 1
5566 5568 1
5566 5569 1
5566 5571 1
5566 5634 1
5566 5637 1
5566 5638 1
5567 5568 1
5567 5633 1
5567 5634 1
5567 5637 1
5567 6179 1
5567 6182 1
5567 6183 1
5567 6251 1
5568 5569 1
5568 5571 1
5568 6111 1
5568 6182 1
5568 6183 1
5568 6186 1
5569 5570 1
5569 5571 1
5569 5572 1
5570 5571 1
5570 5572 1
5570 5573 1
5570 5575 1
5570 5638 1
5570 5640 1
5570 5641 1
5571 5572 1
5571 5637 1
5571 5638 1
5571 5640 1
5571 6183 1
5571 6186 1
5571 6187 1
5571 6255 1
5572 5573 1
5572 5575 1
5572 6115 1
5572 6186 1
5572 6187 1
5572 6190 1
5573 5574 1
5573 5575 1
5573 5576 1
5574 5575 1
5574 5576 1
5574 5577 1
5574 5579 1
5574 5641 1
5575 5576 1
5575 5640 1
5575 5641 1
5575 6187 1
5575 6190 1
5575 6191 1
5575 6258 1
5576 5577 1
5576 5579 1
5576 6119 1
5576 6190 1
5576 6191 1
5576 6194 1
5577 5578 1
5577 5579 1
5577 5580 1
5578 5579 1
5578 5580 1
5578 5581 1
5578 5582 1
5579 5580 1
5579 6191 1
5579 6194 1
5579 6195 1
5580 5581 1
5580 5582 1
5580 6123 1
5580 6194 1
5580 6195 1
5580 6198 1
5581 5582 1
5581 5583 1
5582 5583 1
5582 6195 1
5582 6198 1
5583 5584 1
5583 6127 1
5583 6198 1
5583 6201 1
5584 5585 1
5585 5586 1
5585 5588 1
5585 6131 1
5585 6201 1
5585 6203 1
5586 5587 1
5586 5588 1
5586 5589 1
5587 5588 1
5587 5589 1
5587 5590 1
5587 5592 1
5588 5589 1
5588 6203 1
5588 6204 1
5589 5590 1
5589 5592 1
5589 6135 1
5589 6203 1
5589 6204 1
5589 6207 1
5590 5591 1
5590 5592 1
5590 5593 1
5591 5592 1
5591 5593 1
5591 5594 1
5591 5596 1
5591 5642 1
5592 5593 1
5592 6204 1
5592 6207 1
5592 6208 1
5593 5594 1
5593 5596 1
5593 6139 1
5593 6207 1
5593 6208 1
5593 6211 1
5594 5595 1
5594 5596 1
5594 5597 1
5595 5596 1
5595 5597 1
5595 5598 1
5595 5600 1
5595 5642 1
5595 5643 1
5595 5644 1
5596 5597 1
5596 5642 1
5596 5643 1
5596 6208 1
5596 6211 1
5596 6212 1
5596 6259 1
5597 5598 1
5597 5600 1
5597 6143 1
5597 6211 1
5597 6212 1
5597 6215 1
5598 5599 1
5598 5600 1
5598 5601 1
5599 5600 1
5599 5601 1
5599 5602 1
5599 5604 1
5599 5644 1
5599 5647 1
5599 5648 1
5600 5601 1
5600 5643 1
5600 5644 1
5600 5647 1
5600 6212 1
5600 6215 1
5600 6216 1
5600 6261 1
5601 5602 1
5601 5604 1
5601 6147 1
5601 6215 1
5601 6216 1
5601 6219 1
5602 5603 1
5602 5604 1
5602 5605 1
5603 5604 1
5603 5605 1
5603 5606 1
5603 5608 1
5603 5648 1
5603 5651 1
5603 5652 1
5604 5605 1
5604 5647 1
5604 5648 1
5604 5651 1
5604 6216 1
5604 6219 1
5604 6220 1
5604 6265 1
5605 5606 1
5605 5608 1
5605 6151 1
5605 6219 1
5605 6220 1
5605 6223 1
5606 5607 1
5606 5608 1
5606 5609 1
5607 5608 1
5607 5609 1
5607 5610 1
5607 5612 1
5607 5652 1
5607 5655 1
5607 5656 1
5608 5609 1
5608 5651 1
5608 5652 1
5608 5655 1
5608 6220 1
5608 6223 1
5608 6224 1
5608 6269 1
5609 5610 1
5609 5612 1
5609 6155 1
5609 6223 1
5609 6224 1
5609 6227 1
5610 5611 1
5610 5612 1
5610 5613 1
5611 5612 1
5611 5613 1
5611 5614 1
5611 5616 1
5611 5656 1
5611 5659 1
5611 5660 1
5612 5613 1
5612 5655 1
5612 5656 1
5612 5659 1
5612 6224 1
5612 6227 1
5612 6228 1
5612 6273 1
5613 5614 1
5613 5616 1
5613 6159 1
5613 6227 1
5613 6228 1
5613 6231 1
5614 5615 1
5614 5616 1
5614 5617 1
5615 5616 1
5615 5617 1
5615 5660 1
5615 5663 1
5616 5617 1
5616 5659 1
5616 5660 1
5616 5663 1
5616 6228 1
5616 6231 1
5616 6232 1
5616 6277 1
5617 6163 1
5617 6231 1
5617 6232 1
5618 5619 1
5618 5620 1
5618 5621 1
5619 5620 1
5619 5621 1
5619 5622 1
5619 5624 1
5619 5664 1
5619 5667 1
5619 5668 1
5620 5621 1
5620 5664 1
5620 5667 1
5620 6235 1
5620 6236 1
5620 6281 1
5621 5622 1
5621 5624 1
5621 6167 1
5621 6235 1
5621 6236 1
5621 6239 1
5622 5623 1
5622 5624 1
5622 5625 1
5623 5624 1
5623 5625 1
5623 5626 1
5623 5628 1
5623 5668 1
5623 5671 1
5623 5672 1
5624 5625 1
5624 5667 1
5624 5668 1
5624 5671 1
5624 6236 1
5624 6239 1
5624 6240 1
5624 6285 1
5625 5626 1
5625 5628 1
5625 6171 1
5625 6239 1
5625 6240 1
5625 6243 1
5626 5627 1
5626 5628 1
5626 5629 1
5627 5628 1
5627 5629 1
5627 5630 1
5627 5632 1
5627 5672 1
5627 5675 1
5627 5676 1
5628 5629 1
5628 5671 1
5628 5672 1
5628 5675 1
5628 6240 1
5628 6243 1
5628 6244 1
5628 6289 1
5629 5630 1
5629 5632 1
5629 6175 1
5629 6243 1
5629 6244 1
5629 6247 1
5630 5631 1
5630 5632 1
5630 5633 1
5631 5632 1
5631 5633 1
5631 5634 1
5631 5636 1
5631 5676 1
5631 5679 1
5631 5680 1
5632 5633 1
5632 5675 1
5632 5676 1
5632 5679 1
5632 6244 1
5632 6247 1
5632 6248 1
5632 6293 1
5633 5634 1
5633 5636 1
5633 6179 1
5633 6247 1
5633 6248 1
5633 6251 1
5634 5635 1
5634 5636 1
5634 5637 1
5635 5636 1
5635 5637 1
5635 5638 1
5635 5639 1
5635 5680 1
5636 5637 1
5636 5679 1
5636 5680 1
5636 6248 1
5636 6251 1
5636 6252 1
5636 6297 1
5637 5638 1
5637 5639 1
5637 6183 1
5637 6251 1
5637 6252 1
5637 6255 1
5638 5639 1
5638 5640 1
5639 5640 1
5639 6252 1
5639 6255 1
5640 5641 1
5640 6187 1
5640 6255 1
5640 6258 1
5642 5643 1
5643 5644 1
5643 5646 1
5643 6212 1
5643 6259 1
5643 6261 1
5644 5645 1
5644 5646 1
5644 5647 1
5645 5646 1
5645 5647 1
5645 5648 1
5645 5650 1
5645 5681 1
5645 5682 1
5646 5647 1
5646 5681 1
5646 6261 1
5646 6262 1
5647 5648 1
5647 5650 1
5647 6216 1
5647 6261 1
5647 6262 1
5647 6265 1
5648 5649 1
5648 5650 1
5648 5651 1
5649 5650 1
5649 5651 1
5649 5652 1
5649 5654 1
5649 5682 1
5649 5685 1
5649 5686 1
5650 5651 1
5650 5681 1
5650 5682 1
5650 5685 1
5650 6262 1
5650 6265 1
5650 6266 1
5650 6299 1
5651 5652 1
5651 5654 1
5651 6220 1
5651 6265 1
5651 6266 1
5651 6269 1
5652 5653 1
5652 5654 1
5652 5655 1
5653 5654 1
5653 5655 1
5653 5656 1
5653 5658 1
5653 5686 1
5653 5689 1
5653 5690 1
5654 5655 1
5654 5685 1
5654 5686 1
5654 5689 1
5654 6266 1
5654 6269 1
5654 6270 1
5654 6303 1
5655 5656 1
5655 5658 1
5655 6224 1
5655 6269 1
5655 6270 1
5655 6273 1
5656 5657 1
5656 5658 1
5656 5659 1
5657 5658 1
5657 5659 1
5657 5660 1
5657 5662 1
5657 5690 1
5657 5693 1
5657 5694 1
5658 5659 1
5658 5689 1
5658 5690 1
5658 5693 1
5658 6270 1
5658 6273 1
5658 6274 1
5658 6307 1
5659 5660 1
5659 5662 1
5659 6228 1
5659 6273 1
5659 6274 1
5659 6277 1
5660 5661 1
5660 5662 1
5660 5663 1
5661 5662 1
5661 5663 1
5661 5694 1
5661 5697 1
5662 5663 1
5662 5693 1
5662 5694 1
5662 5697 1
5662 6274 1
5662 6277 1
5662 6278 1
5662 6311 1
5663 6232 1
5663 6277 1
5663 6278 1
5664 5665 1
5664 5666 1
5664 5667 1
5665 5666 1
5665 5667 1
5665 5668 1
5665 5670 1
5665 5698 1
5665 5701 1
5665 5702 1
5666 5667 1
5666 5698 1
5666 5701 1
5666 6281 1
5666 6282 1
5666 6315 1
5667 5668 1
5667 5670 1
5667 6236 1
5667 6281 1
5667 6282 1
5667 6285 1
5668 5669 1
5668 5670 1
5668 5671 1
5669 5670 1
5669 5671 1
5669 5672 1
5669 5674 1
5669 5702 1
5669 5705 1
5669 5706 1
5670 5671 1
5670 5701 1
5670 5702 1
5670 5705 1
5670 6282 1
5670 6285 1
5670 6286 1
5670 6319 1
5671 5672 1
5671 5674 1
5671 6240 1
5671 6285 1
5671 6286 1
5671 6289 1
5672 5673 1
5672 5674 1
5672 5675 1
5673 5674 1
5673 5675 1
5673 5676 1
5673 5678 1
5673 5706 1
5673 5709 1
5673 5710 1
5674 5675 1
5674 5705 1
5674 5706 1
5674 5709 1
5674 6286 1
5674 6289 1
5674 6290 1
5674 6323 1
5675 5676 1
5675 5678 1
5675 6244 1
5675 6289 1
5675 6290 1
5675 6293 1
5676 5677 1
5676 5678 1
5676 5679 1
5677 5678 1
5677 5679 1
5677 5680 1
5677 5710 1
5678 5679 1
5678 5709 1
5678 5710 1
5678 6290 1
5678 6293 1
5678 6294 1
5678 6327 1
5679 5680 1
5679 6248 1
5679 6293 1
5679 6294 1
5679 6297 1
5681 5682 1
5681 5684 1
5681 6262 1
5681 6299 1
5682 5683 1
5682 5684 1
5682 5685 1
5683 5684 1
5683 5685 1
5683 5686 1
5683 5688 1
5683 5711 1
5683 5712 1
5684 5685 1
5684 5711 1
5684 6299 1
5684 6300 1
5685 5686 1
5685 5688 1
5685 6266 1
5685 6299 1
5685 6300 1
5685 6303 1
5686 5687 1
5686 5688 1
5686 5689 1
5687 5688 1
5687 5689 1
5687 5690 1
5687 5692 1
5687 5712 1
5687 5715 1
5687 5716 1
5688 5689 1
5688 5711 1
5688 5712 1
5688 5715 1
5688 6300 1
5688 6303 1
5688 6304 1
5688 6329 1
5689 5690 1
5689 5692 1
5689 6270 1
5689 6303 1
5689 6304 1
5689 6307 1
5690 5691 1
5690 5692 1
5690 5693 1
5691 5692 1
5691 5693 1
5691 5694 1
5691 5696 1
5691 5716 1
5691 5719 1
5691 5720 1
5692 5693 1
5692 5715 1
5692 5716 1
5692 5719 1
5692 6304 1
5692 6307 1
5692 6308 1
5692 6333 1
5693 5694 1
5693 5696 1
5693 6274 1
5693 6307 1
5693 6308 1
5693 6311 1
5694 5695 1
5694 5696 1
5694 5697 1
5695 5696 1
5695 5697 1
5695 5720 1
5695 5723 1
5696 5697 1
5696 5719 1
5696 5720 1
5696 5723 1
5696 6308 1
5696 6311 1
5696 6312 1
5696 6337 1
5697 6278 1
5697 6311 1
5697 6312 1
5698 5699 1
5698 5700 1
5698 5701 1
5699 5700 1
5699 5701 1
5699 5702 1
5699 5704 1
5699 5724 1
5699 5727 1
5699 5728 1
5700 5701 1
5700 5724 1
5700 5727 1
5700 6315 1
5700 6316 1
5700 6341 1
5701 5702 1
5701 5704 1
5701 6282 1
5701 6315 1
5701 6316 1
5701 6319 1
5702 5703 1
5702 5704 1
5702 5705 1
5703 5704 1
5703 5705 1
5703 5706 1
5703 5708 1
5703 5728 1
5703 5731 1
5703 5732 1
5704 5705 1
5704 5727 1
5704 5728 1
5704 5731 1
5704 6316 1
5704 6319 1
5704 6320 1
5704 6345 1
5705 5706 1
5705 5708 1
5705 6286 1
5705 6319 1
5705 6320 1
5705 6323 1
5706 5707 1
5706 5708 1
5706 5709 1
5707 5708 1
5707 5709 1
5707 5710 1
5707 5732 1
5707 5734 1
5708 5709 1
5708 5731 1
5708 5732 1
5708 5734 1
5708 6320 1
5708 6323 1
5708 6324 1
5708 6349 1
5709 5710 1
5709 6290 1
5709 6323 1
5709 6324 1
5709 6327 1
5711 5712 1
5711 5714 1
5711 6300 1
5711 6329 1
5712 5713 1
5712 5714 1
5712 5715 1
5713 5714 1
5713 5715 1
5713 5716 1
5713 5718 1
5713 5736 1
5713 5737 1
5714 5715 1
5714 5736 1
5714 6329 1
5714 6330 1
5715 5716 1
5715 5718 1
5715 6304 1
5715 6329 1
5715 6330 1
5715 6333 1
5716 5717 1
5716 5718 1
5716 5719 1
5717 5718 1
5717 5719 1
5717 5720 1
5717 5722 1
5717 5737 1
5717 5740 1
5717 5741 1
5718 5719 1
5718 5736 1
5718 5737 1
5718 5740 1
5718 6330 1
5718 6333 1
5718 6334 1
5718 6354 1
5719 5720 1
5719 5722 1
5719 6308 1
5719 6333 1
5719 6334 1
5719 6337 1
5720 5721 1
5720 5722 1
5720 5723 1
5721 5722 1
5721 5723 1
5721 5741 1
5721 5744 1
5722 5723 1
5722 5740 1
5722 5741 1
5722 5744 1
5722 6334 1
5722 6337 1
5722 6338 1
5722 6358 1
5723 6312 1
5723 6337 1
5723 6338 1
5724 5725 1
5724 5726 1
5724 5727 1
5725 5726 1
5725 5727 1
5725 5728 1
5725 5730 1
5725 5745 1
5725 5748 1
5725 5749 1
5726 5727 1
5726 5745 1
5726 5748 1
5726 6341 1
5726 6342 1
5726 6362 1
5727 5728 1
5727 5730 1
5727 6316 1
5727 6341 1
5727 6342 1
5727 6345 1
5728 5729 1
5728 5730 1
5728 5731 1
5729 5730 1
5729 5731 1
5729 5732 1
5729 5733 1
5729 5749 1
5729 5752 1
5729 5753 1
5730 5731 1
5730 5748 1
5730 5749 1
5730 5752 1
5730 6342 1
5730 6345 1
5730 6346 1
5730 6366 1
5731 5732 1
5731 5733 1
5731 6320 1
5731 6345 1
5731 6346 1
5731 6349 1
5732 5733 1
5732 5734 1
5733 5734 1
5733 5752 1
5733 5753 1
5733 6346 1
5733 6349 1
5733 6370 1
5734 6324 1
5734 6349 1
5735 5736 1
5735 5737 1
5735 5739 1
5735 5754 1
5736 5737 1
5736 5739 1
5736 6330 1
5736 6352 1
5736 6354 1
5737 5738 1
5737 5739 1
5737 5740 1
5738 5739 1
5738 5740 1
5738 5741 1
5738 5743 1
5738 5754 1
5738 5757 1
5738 5758 1
5739 5740 1
5739 5754 1
5739 5757 1
5739 6352 1
5739 6354 1
5739 6355 1
5739 6371 1
5740 5741 1
5740 5743 1
5740 6334 1
5740 6354 1
5740 6355 1
5740 6358 1
5741 5742 1
5741 5743 1
5741 5744 1
5742 5743 1
5742 5744 1
5742 5758 1
5742 5761 1
5743 5744 1
5743 5757 1
5743 5758 1
5743 5761 1
5743 6355 1
5743 6358 1
5743 6359 1
5743 6375 1
5744 6338 1
5744 6358 1
5744 6359 1
5745 5746 1
5745 5747 1
5745 5748 1
5746 5747 1
5746 5748 1
5746 5749 1
5746 5751 1
5746 5762 1
5746 5765 1
5746 5766 1
5747 5748 1
5747 5762 1
5747 5765 1
5747 6362 1
5747 6363 1
5747 6379 1
5748 5749 1
5748 5751 1
5748 6342 1
5748 6362 1
5748 6363 1
5748 6366 1
5749 5750 1
5749 5751 1
5749 5752 1
5750 5751 1
5750 5752 1
5750 5753 1
5750 5766 1
5750 5769 1
5751 5752 1
5751 5765 1
5751 5766 1
5751 5769 1
5751 6363 1
5751 6366 1
5751 6367 1
5751 6383 1
5752 5753 1
5752 6346 1
5752 6366 1
5752 6367 1
5752 6370 1
5754 5755 1
5754 5756 1
5754 5757 1
5755 5756 1
5755 5757 1
5755 5758 1
5755 5760 1
5755 5770 1
5755 5772 1
5755 5773 1
5756 5757 1
5756 5770 1
5756 5772 1
5756 6371 1
5756 6372 1
5756 6387 1
5757 5758 1
5757 5760 1
5757 6355 1
5757 6371 1
5757 6372 1
5757 6375 1
5758 5759 1
5758 5760 1
5758 5761 1
5759 5760 1
5759 5761 1
5759 5773 1
5759 5776 1
5760 5761 1
5760 5772 1
5760 5773 1
5760 5776 1
5760 6372 1
5760 6375 1
5760 6376 1
5760 6390 1
5761 6359 1
5761 6375 1
5761 6376 1
5762 5763 1
5762 5764 1
5762 5765 1
5763 5764 1
5763 5765 1
5763 5766 1
5763 5768 1
5763 5777 1
5763 5780 1
5763 5781 1
5764 5765 1
5764 5777 1
5764 5780 1
5764 6379 1
5764 6380 1
5764 6394 1
5765 5766 1
5765 5768 1
5765 6363 1
5765 6379 1
5765 6380 1
5765 6383 1
5766 5767 1
5766 5768 1
5766 5769 1
5767 5768 1
5767 5769 1
5767 5781 1
5767 5783 1
5768 5769 1
5768 5780 1
5768 5781 1
5768 5783 1
5768 6380 1
5768 6383 1
5768 6384 1
5768 6398 1
5769 6367 1
5769 6383 1
5769 6384 1
5770 5771 1
5770 5772 1
5771 5772 1
5771 5773 1
5771 5775 1
5771 5785 1
5771 5786 1
5772 5773 1
5772 5775 1
5772 6372 1
5772 6387 1
5772 6388 1
5772 6390 1
5773 5774 1
5773 5775 1
5773 5776 1
5774 5775 1
5774 5776 1
5774 5786 1
5774 5789 1
5775 5776 1
5775 5785 1
5775 5786 1
5775 5789 1
5775 6388 1
5775 6390 1
5775 6391 1
5775 6403 1
5776 6376 1
5776 6390 1
5776 6391 1
5777 5778 1
5777 5779 1
5777 5780 1
5778 5779 1
5778 5780 1
5778 5781 1
5778 5782 1
5778 5790 1
5778 5793 1
5778 5794 1
5779 5780 1
5779 5790 1
5779 5793 1
5779 6394 1
5779 6395 1
5779 6407 1
5780 5781 1
5780 5782 1
5780 6380 1
5780 6394 1
5780 6395 1
5780 6398 1
5781 5782 1
5781 5783 1
5782 5783 1
5782 5793 1
5782 5794 1
5782 6395 1
5782 6398 1
5782 6411 1
5783 6384 1
5783 6398 1
5784 5785 1
5784 5786 1
5784 5788 1
5784 5797 1
5784 5798 1
5785 5786 1
5785 5788 1
5785 6388 1
5785 6401 1
5785 6403 1
5786 5787 1
5786 5788 1
5786 5789 1
5787 5788 1
5787 5789 1
5787 5798 1
5787 5801 1
5788 5789 1
5788 5797 1
5788 5798 1
5788 5801 1
5788 6401 1
5788 6403 1
5788 6404 1
5788 6415 1
5789 6391 1
5789 6403 1
5789 6404 1
5790 5791 1
5790 5792 1
5790 5793 1
5791 5792 1
5791 5793 1
5791 5794 1
5791 5795 1
5791 5802 1
5791 5805 1
5791 5806 1
5792 5793 1
5792 5802 1
5792 5805 1
5792 6407 1
5792 6408 1
5792 6419 1
5793 5794 1
5793 5795 1
5793 6395 1
5793 6407 1
5793 6408 1
5793 6411 1
5794 5795 1
5795 5805 1
5795 5806 1
5795 5809 1
5795 6408 1
5795 6411 1
5795 6423 1
5796 5797 1
5796 5798 1
5796 5800 1
5796 5812 1
5796 5813 1
5797 5798 1
5797 5800 1
5797 6401 1
5797 6413 1
5797 6415 1
5798 5799 1
5798 5800 1
5798 5801 1
5799 5800 1
5799 5801 1
5799 5813 1
5799 5816 1
5800 5801 1
5800 5812 1
5800 5813 1
5800 5816 1
5800 6413 1
5800 6415 1
5800 6416 1
5800 6430 1
5801 6404 1
5801 6415 1
5801 6416 1
5802 5803 1
5802 5804 1
5802 5805 1
5803 5804 1
5803 5805 1
5803 5806 1
5803 5808 1
5803 5817 1
5803 5820 1
5803 5821 1
5804 5805 1
5804 5817 1
5804 5820 1
5804 6419 1
5804 6420 1
5804 6434 1
5805 5806 1
5805 5808 1
5805 6408 1
5805 6419 1
5805 6420 1
5805 6423 1
5806 5807 1
5806 5808 1
5806 5809 1
5807 5808 1
5807 5809 1
5807 5821 1
5807 5824 1
5808 5809 1
5808 5820 1
5808 5821 1
5808 5824 1
5808 6420 1
5808 6423 1
5808 6424 1
5808 6438 1
5809 6423 1
5809 6424 1
5810 5811 1
5810 5812 1
5810 5813 1
5810 5815 1
5810 5825 1
5810 5828 1
5810 5829 1
5811 5812 1
5811 5825 1
5811 5828 1
5811 6427 1
5811 6442 1
5812 5813 1
5812 5815 1
5812 6413 1
5812 6427 1
5812 6430 1
5813 5814 1
5813 5815 1
5813 5816 1
5814 5815 1
5814 5816 1
5814 5829 1
5814 5832 1
5815 5816 1
5815 5828 1
5815 5829 1
5815 5832 1
5815 6427 1
5815 6430 1
5815 6431 1
5815 6446 1
5816 6416 1
5816 6430 1
5816 6431 1
5817 5818 1
5817 5819 1
5817 5820 1
5818 5819 1
5818 5820 1
5818 5821 1
5818 5823 1
5818 5833 1
5818 5836 1
5818 5837 1
5819 5820 1
5819 5833 1
5819 5836 1
5819 6434 1
5819 6435 1
5819 6450 1
5820 5821 1
5820 5823 1
5820 6420 1
5820 6434 1
5820 6435 1
5820 6438 1
5821 5822 1
5821 5823 1
5821 5824 1
5822 5823 1
5822 5824 1
5822 5837 1
5822 5840 1
5822 5841 1
5823 5824 1
5823 5836 1
5823 5837 1
5823 5840 1
5823 6435 1
5823 6438 1
5823 6439 1
5823 6454 1
5824 6424 1
5824 6438 1
5824 6439 1
5825 5826 1
5825 5827 1
5825 5828 1
5826 5827 1
5826 5828 1
5826 5829 1
5826 5831 1
5826 5845 1
5826 5848 1
5826 5849 1
5827 5828 1
5827 5844 1
5827 5845 1
5827 5848 1
5827 6442 1
5827 6443 1
5827 6462 1
5828 5829 1
5828 5831 1
5828 6427 1
5828 6442 1
5828 6443 1
5828 6446 1
5829 5830 1
5829 5831 1
5829 5832 1
5830 5831 1
5830 5832 1
5830 5849 1
5830 5852 1
5831 5832 1
5831 5848 1
5831 5849 1
5831 5852 1
5831 6443 1
5831 6446 1
5831 6447 1
5831 6466 1
5832 6431 1
5832 6446 1
5832 6447 1
5833 5834 1
5833 5835 1
5833 5836 1
5834 5835 1
5834 5836 1
5834 5837 1
5834 5839 1
5834 5853 1
5834 5856 1
5834 5857 1
5835 5836 1
5835 5853 1
5835 5856 1
5835 6450 1
5835 6451 1
5835 6470 1
5836 5837 1
5836 5839 1
5836 6435 1
5836 6450 1
5836 6451 1
5836 6454 1
5837 5838 1
5837 5839 1
5837 5840 1
5838 5839 1
5838 5840 1
5838 5841 1
5838 5842 1
5838 5857 1
5838 5860 1
5838 5861 1
5839 5840 1
5839 5856 1
5839 5857 1
5839 5860 1
5839 6451 1
5839 6454 1
5839 6455 1
5839 6474 1
5840 5841 1
5840 5842 1
5840 6439 1
5840 6454 1
5840 6455 1
5840 6458 1
5841 5842 1
5842 5860 1
5842 5861 1
5842 5864 1
5842 6455 1
5842 6458 1
5842 6478 1
5843 5844 1
5843 5845 1
5843 5847 1
5843 5867 1
5843 5870 1
5843 5871 1
5844 5845 1
5844 5847 1
5844 6460 1
5844 6462 1
5845 5846 1
5845 5847 1
5845 5848 1
5846 5847 1
5846 5848 1
5846 5849 1
5846 5851 1
5846 5871 1
5846 5874 1
5846 5875 1
5847 5848 1
5847 5870 1
5847 5871 1
5847 5874 1
5847 6460 1
5847 6462 1
5847 6463 1
5847 6488 1
5848 5849 1
5848 5851 1
5848 6443 1
5848 6462 1
5848 6463 1
5848 6466 1
5849 5850 1
5849 5851 1
5849 5852 1
5850 5851 1
5850 5852 1
5850 5875 1
5850 5878 1
5851 5852 1
5851 5874 1
5851 5875 1
5851 5878 1
5851 6463 1
5851 6466 1
5851 6467 1
5851 6492 1
5852 6447 1
5852 6466 1
5852 6467 1
5853 5854 1
5853 5855 1
5853 5856 1
5854 5855 1
5854 5856 1
5854 5857 1
5854 5859 1
5854 5879 1
5854 5882 1
5854 5883 1
5855 5856 1
5855 5879 1
5855 5882 1
5855 6470 1
5855 6471 1
5855 6496 1
5856 5857 1
5856 5859 1
5856 6451 1
5856 6470 1
5856 6471 1
5856 6474 1
5857 5858 1
5857 5859 1
5857 5860 1
5858 5859 1
5858 5860 1
5858 5861 1
5858 5863 1
5858 5883 1
5858 5886 1
5858 5887 1
5859 5860 1
5859 5882 1
5859 5883 1
5859 5886 1
5859 6471 1
5859 6474 1
5859 6475 1
5859 6500 1
5860 5861 1
5860 5863 1
5860 6455 1
5860 6474 1
5860 6475 1
5860 6478 1
5861 5862 1
5861 5863 1
5861 5864 1
5862 5863 1
5862 5864 1
5862 5865 1
5862 5887 1
5862 5890 1
5862 5891 1
5863 5864 1
5863 5886 1
5863 5887 1
5863 5890 1
5863 6475 1
5863 6478 1
5863 6479 1
5863 6504 1
5864 5865 1
5864 6478 1
5864 6479 1
5865 5890 1
5865 5891 1
5865 5894 1
5865 6479 1
5865 6508 1
5866 5867 1
5866 5869 1
5866 5899 1
5866 5900 1
5867 5868 1
5867 5869 1
5867 5870 1
5868 5869 1
5868 5870 1
5868 5871 1
5868 5873 1
5868 5900 1
5868 5903 1
5868 5904 1
5869 5870 1
5869 5899 1
5869 5900 1
5869 5903 1
5869 6483 1
5869 6484 1
5869 6485 1
5869 6517 1
5870 5871 1
5870 5873 1
5870 6460 1
5870 6484 1
5870 6485 1
5870 6488 1
5871 5872 1
5871 5873 1
5871 5874 1
5872 5873 1
5872 5874 1
5872 5875 1
5872 5877 1
5872 5904 1
5872 5907 1
5872 5908 1
5873 5874 1
5873 5903 1
5873 5904 1
5873 5907 1
5873 6485 1
5873 6488 1
5873 6489 1
5873 6521 1
5874 5875 1
5874 5877 1
5874 6463 1
5874 6488 1
5874 6489 1
5874 6492 1
5875 5876 1
5875 5877 1
5875 5878 1
5876 5877 1
5876 5878 1
5876 5908 1
5876 5911 1
5877 5878 1
5877 5907 1
5877 5908 1
5877 5911 1
5877 6489 1
5877 6492 1
5877 6493 1
5877 6525 1
5878 6467 1
5878 6492 1
5878 6493 1
5879 5880 1
5879 5881 1
5879 5882 1
5880 5881 1
5880 5882 1
5880 5883 1
5880 5885 1
5880 5912 1
5880 5915 1
5880 5916 1
5881 5882 1
5881 5912 1
5881 5915 1
5881 6496 1
5881 6497 1
5881 6529 1
5882 5883 1
5882 5885 1
5882 6471 1
5882 6496 1
5882 6497 1
5882 6500 1
5883 5884 1
5883 5885 1
5883 5886 1
5884 5885 1
5884 5886 1
5884 5887 1
5884 5889 1
5884 5916 1
5884 5919 1
5884 5920 1
5885 5886 1
5885 5915 1
5885 5916 1
5885 5919 1
5885 6497 1
5885 6500 1
5885 6501 1
5885 6533 1
5886 5887 1
5886 5889 1
5886 6475 1
5886 6500 1
5886 6501 1
5886 6504 1
5887 5888 1
5887 5889 1
5887 5890 1
5888 5889 1
5888 5890 1
5888 5891 1
5888 5893 1
5888 5920 1
5888 5923 1
5888 5924 1
5889 5890 1
5889 5919 1
5889 5920 1
5889 5923 1
5889 6501 1
5889 6504 1
5889 6505 1
5889 6537 1
5890 5891 1
5890 5893 1
5890 6479 1
5890 6504 1
5890 6505 1
5890 6508 1
5891 5892 1
5891 5893 1
5891 5894 1
5892 5893 1
5892 5894 1
5892 5895 1
5892 5924 1
5892 5927 1
5892 5928 1
5893 5894 1
5893 5923 1
5893 5924 1
5893 5927 1
5893 6505 1
5893 6508 1
5893 6509 1
5893 6541 1
5894 5895 1
5894 6508 1
5894 6509 1
5895 5927 1
5895 5928 1
5895 5931 1
5895 6509 1
5895 6545 1
5896 5898 1
5896 5936 1
5896 5939 1
5896 5940 1
5897 5898 1
5897 5899 1
5897 5900 1
5897 5902 1
5897 5940 1
5897 5943 1
5897 5944 1
5898 5899 1
5898 5939 1
5898 5940 1
5898 5943 1
5898 6513 1
5898 6514 1
5898 6557 1
5899 5900 1
5899 5902 1
5899 6483 1
5899 6514 1
5899 6517 1
5900 5901 1
5900 5902 1
5900 5903 1
5901 5902 1
5901 5903 1
5901 5904 1
5901 5906 1
5901 5944 1
5901 5947 1
5901 5948 1
5902 5903 1
5902 5943 1
5902 5944 1
5902 5947 1
5902 6514 1
5902 6517 1
5902 6518 1
5902 6561 1
5903 5904 1
5903 5906 1
5903 6485 1
5903 6517 1
5903 6518 1
5903 6521 1
5904 5905 1
5904 5906 1
5904 5907 1
5905 5906 1
5905 5907 1
5905 5908 1
5905 5910 1
5905 5948 1
5905 5951 1
5905 5952 1
5906 5907 1
5906 5947 1
5906 5948 1
5906 5951 1
5906 6518 1
5906 6521 1
5906 6522 1
5906 6565 1
5907 5908 1
5907 5910 1
5907 6489 1
5907 6521 1
5907 6522 1
5907 6525 1
5908 5909 1
5908 5910 1
5908 5911 1
5909 5910 1
5909 5911 1
5909 5952 1
5909 5955 1
5910 5911 1
5910 5951 1
5910 5952 1
5910 5955 1
5910 6522 1
5910 6525 1
5910 6526 1
5910 6569 1
5911 6493 1
5911 6525 1
5911 6526 1
5912 5913 1
5912 5914 1
5912 5915 1
5913 5914 1
5913 5915 1
5913 5916 1
5913 5918 1
5913 5956 1
5913 5959 1
5913 5960 1
5914 5915 1
5914 5956 1
5914 5959 1
5914 6529 1
5914 6530 1
5914 6573 1
5915 5916 1
5915 5918 1
5915 6497 1
5915 6529 1
5915 6530 1
5915 6533 1
5916 5917 1
5916 5918 1
5916 5919 1
5917 5918 1
5917 5919 1
5917 5920 1
5917 5922 1
5917 5960 1
5917 5963 1
5917 5964 1
5918 5919 1
5918 5959 1
5918 5960 1
5918 5963 1
5918 6530 1
5918 6533 1
5918 6534 1
5918 6577 1
5919 5920 1
5919 5922 1
5919 6501 1
5919 6533 1
5919 6534 1
5919 6537 1
5920 5921 1
5920 5922 1
5920 5923 1
5921 5922 1
5921 5923 1
5921 5924 1
5921 5926 1
5921 5964 1
5921 5967 1
5921 5968 1
5922 5923 1
5922 5963 1
5922 5964 1
5922 5967 1
5922 6534 1
5922 6537 1
5922 6538 1
5922 6581 1
5923 5924 1
5923 5926 1
5923 6505 1
5923 6537 1
5923 6538 1
5923 6541 1
5924 5925 1
5924 5926 1
5924 5927 1
5925 5926 1
5925 5927 1
5925 5928 1
5925 5930 1
5925 5968 1
5925 5971 1
5925 5972 1
5926 5927 1
5926 5967 1
5926 5968 1
5926 5971 1
5926 6538 1
5926 6541 1
5926 6542 1
5926 6585 1
5927 5928 1
5927 5930 1
5927 6509 1
5927 6541 1
5927 6542 1
5927 6545 1
5928 5929 1
5928 5930 1
5928 5931 1
5929 5930 1
5929 5931 1
5929 5933 1
5929 5972 1
5929 5975 1
5929 5976 1
5930 5931 1
5930 5971 1
5930 5972 1
5930 5975 1
5930 6542 1
5930 6545 1
5930 6546 1
5930 6589 1
5931 5933 1
5931 6545 1
5931 6546 1
5932 5933 1
5932 5976 1
5932 5979 1
5932 5980 1
5933 5975 1
5933 5976 1
5933 5979 1
5933 6546 1
5933 6549 1
5933 6593 1
5934 5935 1
5934 5936 1
5934 5938 1
5934 5998 1
5934 6001 1
5934 6002 1
5935 5997 1
5935 5998 1
5935 6001 1
5935 6551 1
5935 6615 1
5936 5937 1
5936 5938 1
5936 5939 1
5937 5938 1
5937 5939 1
5937 5940 1
5937 5942 1
5937 6002 1
5937 6005 1
5937 6006 1
5938 5939 1
5938 6001 1
5938 6002 1
5938 6005 1
5938 6551 1
5938 6553 1
5938 6554 1
5938 6619 1
5939 5940 1
5939 5942 1
5939 6513 1
5939 6553 1
5939 6554 1
5939 6557 1
5940 5941 1
5940 5942 1
5940 5943 1
5941 5942 1
5941 5943 1
5941 5944 1
5941 5946 1
5941 6006 1
5941 6009 1
5941 6010 1
5942 5943 1
5942 6005 1
5942 6006 1
5942 6009 1
5942 6554 1
5942 6557 1
5942 6558 1
5942 6623 1
5943 5944 1
5943 5946 1
5943 6514 1
5943 6557 1
5943 6558 1
5943 6561 1
5944 5945 1
5944 5946 1
5944 5947 1
5945 5946 1
5945 5947 1
5945 5948 1
5945 5950 1
5945 6010 1
5945 6013 1
5945 6014 1
5946 5947 1
5946 6009 1
5946 6010 1
5946 6013 1
5946 6558 1
5946 6561 1
5946 6562 1
5946 6627 1
5947 5948 1
5947 5950 1
5947 6518 1
5947 6561 1
5947 6562 1
5947 6565 1
5948 5949 1
5948 5950 1
5948 5951 1
5949 5950 1
5949 5951 1
5949 5952 1
5949 5954 1
5949 6014 1
5949 6017 1
5949 6018 1
5950 5951 1
5950 6013 1
5950 6014 1
5950 6017 1
5950 6562 1
5950 6565 1
5950 6566 1
5950 6631 1
5951 5952 1
5951 5954 1
5951 6522 1
5951 6565 1
5951 6566 1
5951 6569 1
5952 5953 1
5952 5954 1
5952 5955 1
5953 5954 1
5953 5955 1
5953 6018 1
5953 6021 1
5954 5955 1
5954 6017 1
5954 6018 1
5954 6021 1
5954 6566 1
5954 6569 1
5954 6570 1
5954 6635 1
5955 6526 1
5955 6569 1
5955 6570 1
5956 5957 1
5956 5958 1
5956 5959 1
5957 5958 1
5957 5959 1
5957 5960 1
5957 5962 1
5957 6022 1
5957 6025 1
5957 6026 1
5958 5959 1
5958 6022 1
5958 6025 1
5958 6573 1
5958 6574 1
5958 6639 1
5959 5960 1
5959 5962 1
5959 6530 1
5959 6573 1
5959 6574 1
5959 6577 1
5960 5961 1
5960 5962 1
5960 5963 1
5961 5962 1
5961 5963 1
5961 5964 1
5961 5966 1
5961 6026 1
5961 6029 1
5961 6030 1
5962 5963 1
5962 6025 1
5962 6026 1
5962 6029 1
5962 6574 1
5962 6577 1
5962 6578 1
5962 6643 1
5963 5964 1
5963 5966 1
5963 6534 1
5963 6577 1
5963 6578 1
5963 6581 1
5964 5965 1
5964 5966 1
5964 5967 1
5965 5966 1
5965 5967 1
5965 5968 1
5965 5970 1
5965 6030 1
5965 6033 1
5965 6034 1
5966 5967 1
5966 6029 1
5966 6030 1
5966 6033 1
5966 6578 1
5966 6581 1
5966 6582 1
5966 6647 1
5967 5968 1
5967 5970 1
5967 6538 1
5967 6581 1
5967 6582 1
5967 6585 1
5968 5969 1
5968 5970 1
5968 5971 1
5969 5970 1
5969 5971 1
5969 5972 1
5969 5974 1
5969 6034 1
5969 6037 1
5969 6038 1
5970 5971 1
5970 6033 1
5970 6034 1
5970 6037 1
5970 6582 1
5970 6585 1
5970 6586 1
5970 6651 1
5971 5972 1
5971 5974 1
5971 6542 1
5971 6585 1
5971 6586 1
5971 6589 1
5972 5973 1
5972 5974 1
5972 5975 1
5973 5974 1
5973 5975 1
5973 5976 1
5973 5978 1
5973 6038 1
5973 6041 1
5973 6042 1
5974 5975 1
5974 6037 1
5974 6038 1
5974 6041 1
5974 6586 1
5974 6589 1
5974 6590 1
5974 6655 1
5975 5976 1
5975 5978 1
5975 6546 1
5975 6589 1
5975 6590 1
5975 6593 1
5976 5977 1
5976 5978 1
5976 5979 1
5977 5978 1
5977 5979 1
5977 5980 1
5977 5982 1
5977 6042 1
5977 6045 1
5977 6046 1
5978 5979 1
5978 6041 1
5978 6042 1
5978 6045 1
5978 6590 1
5978 6593 1
5978 6594 1
5978 6659 1
5979 5980 1
5979 5982 1
5979 6549 1
5979 6593 1
5979 6594 1
5979 6597 1
5980 5981 1
5980 5982 1
5980 5983 1
5981 5982 1
5981 5983 1
5981 5984 1
5981 5986 1
5981 6046 1
5981 6049 1
5981 6050 1
5982 5983 1
5982 6045 1
5982 6046 1
5982 6049 1
5982 6594 1
5982 6597 1
5982 6598 1
5982 6663 1
5983 5984 1
5983 5986 1
5983 6597 1
5983 6598 1
5983 6601 1
5984 5985 1
5984 5986 1
5985 5986 1
5985 5988 1
5985 6050 1
5985 6053 1
5985 6054 1
5986 6049 1
5986 6050 1
5986 6053 1
5986 6598 1
5986 6601 1
5986 6602 1
5986 6667 1
5987 5988 1
5987 5990 1
5987 6054 1
5987 6057 1
5987 6058 1
5988 6053 1
5988 6054 1
5988 6057 1
5988 6602 1
5988 6604 1
5988 6671 1
5989 5990 1
5989 5992 1
5989 6058 1
5989 6061 1
5989 6062 1
5990 6057 1
5990 6058 1
5990 6061 1
5990 6604 1
5990 6606 1
5990 6675 1
5991 5992 1
5991 5993 1
5991 5994 1
5991 5996 1
5991 6062 1
5991 6065 1
5991 6066 1
5992 5993 1
5992 6061 1
5992 6062 1
5992 6065 1
5992 6606 1
5992 6608 1
5992 6679 1
5993 5994 1
5993 5996 1
5993 6608 1
5993 6611 1
5994 5995 1
5994 5996 1
5994 5997 1
5995 5996 1
5995 5997 1
5995 5998 1
5995 6000 1
5995 6066 1
5995 6069 1
5995 6070 1
5996 5997 1
5996 6065 1
5996 6066 1
5996 6069 1
5996 6608 1
5996 6611 1
5996 6612 1
5996 6683 1
5997 5998 1
5997 6000 1
5997 6611 1
5997 6612 1
5997 6615 1
5998 5999 1
5998 6000 1
5998 6001 1
5999 6000 1
5999 6001 1
5999 6002 1
5999 6004 1
5999 6070 1
5999 6073 1
5999 6074 1
6000 6001 1
6000 6069 1
6000 6070 1
6000 6073 1
6000 6612 1
6000 6615 1
6000 6616 1
6000 6687 1
6001 6002 1
6001 6004 1
6001 6551 1
6001 6615 1
6001 6616 1
6001 6619 1
6002 6003 1
6002 6004 1
6002 6005 1
6003 6004 1
6003 6005 1
6003 6006 1
6003 6008 1
6003 6074 1
6003 6077 1
6003 6078 1
6004 6005 1
6004 6073 1
6004 6074 1
6004 6077 1
6004 6616 1
6004 6619 1
6004 6620 1
6004 6691 1
6005 6006 1
6005 6008 1
6005 6554 1
6005 6619 1
6005 6620 1
6005 6623 1
6006 6007 1
6006 6008 1
6006 6009 1
6007 6008 1
6007 6009 1
6007 6010 1
6007 6012 1
6007 6078 1
6007 6081 1
6007 6082 1
6008 6009 1
6008 6077 1
6008 6078 1
6008 6081 1
6008 6620 1
6008 6623 1
6008 6624 1
6008 6695 1
6009 6010 1
6009 6012 1
6009 6558 1
6009 6623 1
6009 6624 1
6009 6627 1
6010 6011 1
6010 6012 1
6010 6013 1
6011 6012 1
6011 6013 1
6011 6014 1
6011 6016 1
6011 6082 1
6011 6085 1
6011 6086 1
6012 6013 1
6012 6081 1
6012 6082 1
6012 6085 1
6012 6624 1
6012 6627 1
6012 6628 1
6012 6699 1
6013 6014 1
6013 6016 1
6013 6562 1
6013 6627 1
6013 6628 1
6013 6631 1
6014 6015 1
6014 6016 1
6014 6017 1
6015 6016 1
6015 6017 1
6015 6018 1
6015 6020 1
6015 6086 1
6015 6089 1
6015 6090 1
6016 6017 1
6016 6085 1
6016 6086 1
6016 6089 1
6016 6628 1
6016 6631 1
6016 6632 1
6016 6703 1
6017 6018 1
6017 6020 1
6017 6566 1
6017 6631 1
6017 6632 1
6017 6635 1
6018 6019 1
6018 6020 1
6018 6021 1
6019 6020 1
6019 6021 1
6019 6090 1
6019 6093 1
6020 6021 1
6020 6089 1
6020 6090 1
6020 6093 1
6020 6632 1
6020 6635 1
6020 6636 1
6020 6707 1
6021 6570 1
6021 6635 1
6021 6636 1
6022 6023 1
6022 6024 1
6022 6025 1
6023 6024 1
6023 6025 1
6023 6026 1
6023 6028 1
6024 6025 1
6024 6639 1
6024 6640 1
6025 6026 1
6025 6028 1
6025 6574 1
6025 6639 1
6025 6640 1
6025 6643 1
6026 6027 1
6026 6028 1
6026 6029 1
6027 6028 1
6027 6029 1
6027 6030 1
6027 6032 1
6028 6029 1
6028 6640 1
6028 6643 1
6028 6644 1
6029 6030 1
6029 6032 1
6029 6578 1
6029 6643 1
6029 6644 1
6029 6647 1
6030 6031 1
6030 6032 1
6030 6033 1
6031 6032 1
6031 6033 1
6031 6034 1
6031 6036 1
6032 6033 1
6032 6644 1
6032 6647 1
6032 6648 1
6033 6034 1
6033 6036 1
6033 6582 1
6033 6647 1
6033 6648 1
6033 6651 1
6034 6035 1
6034 6036 1
6034 6037 1
6035 6036 1
6035 6037 1
6035 6038 1
6035 6040 1
6036 6037 1
6036 6648 1
6036 6651 1
6036 6652 1
6037 6038 1
6037 6040 1
6037 6586 1
6037 6651 1
6037 6652 1
6037 6655 1
6038 6039 1
6038 6040 1
6038 6041 1
6039 6040 1
6039 6041 1
6039 6042 1
6039 6044 1
6040 6041 1
6040 6652 1
6040 6655 1
6040 6656 1
6041 6042 1
6041 6044 1
6041 6590 1
6041 6655 1
6041 6656 1
6041 6659 1
6042 6043 1
6042 6044 1
6042 6045 1
6043 6044 1
6043 6045 1
6043 6046 1
6043 6048 1
6044 6045 1
6044 6656 1
6044 6659 1
6044 6660 1
6045 6046 1
6045 6048 1
6045 6594 1
6045 6659 1
6045 6660 1
6045 6663 1
6046 6047 1
6046 6048 1
6046 6049 1
6047 6048 1
6047 6049 1
6047 6050 1
6047 6052 1
6048 6049 1
6048 6660 1
6048 6663 1
6048 6664 1
6049 6050 1
6049 6052 1
6049 6598 1
6049 6663 1
6049 6664 1
6049 6667 1
6050 6051 1
6050 6052 1
6050 6053 1
6051 6052 1
6051 6053 1
6051 6054 1
6051 6056 1
6052 6053 1
6052 6664 1
6052 6667 1
6052 6668 1
6053 6054 1
6053 6056 1
6053 6602 1
6053 6667 1
6053 6668 1
6053 6671 1
6054 6055 1
6054 6056 1
6054 6057 1
6055 6056 1
6055 6057 1
6055 6058 1
6055 6060 1
6056 6057 1
6056 6668 1
6056 6671 1
6056 6672 1
6057 6058 1
6057 6060 1
6057 6604 1
6057 6671 1
6057 6672 1
6057 6675 1
6058 6059 1
6058 6060 1
6058 6061 1
6059 6060 1
6059 6061 1
6059 6062 1
6059 6064 1
6060 6061 1
6060 6672 1
6060 6675 1
6060 6676 1
6061 6062 1
6061 6064 1
6061 6606 1
6061 6675 1
6061 6676 1
6061 6679 1
6062 6063 1
6062 6064 1
6062 6065 1
6063 6064 1
6063 6065 1
6063 6066 1
6063 6068 1
6064 6065 1
6064 6676 1
6064 6679 1
6064 6680 1
6065 6066 1
6065 6068 1
6065 6608 1
6065 6679 1
6065 6680 1
6065 6683 1
6066 6067 1
6066 6068 1
6066 6069 1
6067 6068 1
6067 6069 1
6067 6070 1
6067 6072 1
6068 6069 1
6068 6680 1
6068 6683 1
6068 6684 1
6069 6070 1
6069 6072 1
6069 6612 1
6069 6683 1
6069 6684 1
6069 6687 1
6070 6071 1
6070 6072 1
6070 6073 1
6071 6072 1
6071 6073 1
6071 6074 1
6071 6076 1
6072 6073 1
6072 6684 1
6072 6687 1
6072 6688 1
6073 6074 1
6073 6076 1
6073 6616 1
6073 6687 1
6073 6688 1
6073 6691 1
6074 6075 1
6074 6076 1
6074 6077 1
6075 6076 1
6075 6077 1
6075 6078 1
6075 6080 1
6076 6077 1
6076 6688 1
6076 6691 1
6076 6692 1
6077 6078 1
6077 6080 1
6077 6620 1
6077 6691 1
6077 6692 1
6077 6695 1
6078 6079 1
6078 6080 1
6078 6081 1
6079 6080 1
6079 6081 1
6079 6082 1
6079 6084 1
6080 6081 1
6080 6692 1
6080 6695 1
6080 6696 1
6081 6082 1
6081 6084 1
6081 6624 1
6081 6695 1
6081 6696 1
6081 6699 1
6082 6083 1
6082 6084 1
6082 6085 1
6083 6084 1
6083 6085 1
6083 6086 1
6083 6088 1
6084 6085 1
6084 6696 1
6084 6699 1
6084 6700 1
6085 6086 1
6085 6088 1
6085 6628 1
6085 6699 1
6085 6700 1
6085 6703 1
6086 6087 1
6086 6088 1
6086 6089 1
6087 6088 1
6087 6089 1
6087 6090 1
6087 6092 1
6088 6089 1
6088 6700 1
6088 6703 1
6088 6704 1
6089 6090 1
6089 6092 1
6089 6632 1
6089 6703 1
6089 6704 1
6089 6707 1
6090 6091 1
6090 6092 1
6090 6093 1
6091 6092 1
6091 6093 1
6092 6093 1
6092 6704 1
6092 6707 1
6092 6708 1
6093 6636 1
6093 6707 1
6093 6708 1
6094 6095 1
6094 6096 1
6094 6097 1
6095 6096 1
6095 6097 1
6095 6098 1
6095 6100 1
6095 6166 1
6095 6169 1
6095 6170 1
6096 6097 1
6096 6166 1
6096 6169 1
6096 6711 1
6096 6712 1
6096 6783 1
6097 6098 1
6097 6100 1
6097 6711 1
6097 6712 1
6097 6715 1
6098 6099 1
6098 6100 1
6098 6101 1
6099 6100 1
6099 6101 1
6099 6102 1
6099 6104 1
6099 6170 1
6099 6173 1
6099 6174 1
6100 6101 1
6100 6169 1
6100 6170 1
6100 6173 1
6100 6712 1
6100 6715 1
6100 6716 1
6100 6787 1
6101 6102 1
6101 6104 1
6101 6715 1
6101 6716 1
6101 6719 1
6102 6103 1
6102 6104 1
6102 6105 1
6103 6104 1
6103 6105 1
6103 6106 1
6103 6108 1
6103 6174 1
6103 6177 1
6103 6178 1
6104 6105 1
6104 6173 1
6104 6174 1
6104 6177 1
6104 6716 1
6104 6719 1
6104 6720 1
6104 6791 1
6105 6106 1
6105 6108 1
6105 6719 1
6105 6720 1
6105 6723 1
6106 6107 1
6106 6108 1
6106 6109 1
6107 6108 1
6107 6109 1
6107 6110 1
6107 6112 1
6107 6178 1
6107 6181 1
6107 6182 1
6108 6109 1
6108 6177 1
6108 6178 1
6108 6181 1
6108 6720 1
6108 6723 1
6108 6724 1
6108 6795 1
6109 6110 1
6109 6112 1
6109 6723 1
6109 6724 1
6109 6727 1
6110 6111 1
6110 6112 1
6110 6113 1
6111 6112 1
6111 6113 1
6111 6114 1
6111 6116 1
6111 6182 1
6111 6185 1
6111 6186 1
6112 6113 1
6112 6181 1
6112 6182 1
6112 6185 1
6112 6724 1
6112 6727 1
6112 6728 1
6112 6799 1
6113 6114 1
6113 6116 1
6113 6727 1
6113 6728 1
6113 6731 1
6114 6115 1
6114 6116 1
6114 6117 1
6115 6116 1
6115 6117 1
6115 6118 1
6115 6120 1
6115 6186 1
6115 6189 1
6115 6190 1
6116 6117 1
6116 6185 1
6116 6186 1
6116 6189 1
6116 6728 1
6116 6731 1
6116 6732 1
6116 6803 1
6117 6118 1
6117 6120 1
6117 6731 1
6117 6732 1
6117 6735 1
6118 6119 1
6118 6120 1
6118 6121 1
6119 6120 1
6119 6121 1
6119 6122 1
6119 6124 1
6119 6190 1
6119 6193 1
6119 6194 1
6120 6121 1
6120 6189 1
6120 6190 1
6120 6193 1
6120 6732 1
6120 6735 1
6120 6736 1
6120 6807 1
6121 6122 1
6121 6124 1
6121 6735 1
6121 6736 1
6121 6739 1
6122 6123 1
6122 6124 1
6122 6125 1
6123 6124 1
6123 6125 1
6123 6126 1
6123 6128 1
6123 6194 1
6123 6197 1
6123 6198 1
6124 6125 1
6124 6193 1
6124 6194 1
6124 6197 1
6124 6736 1
6124 6739 1
6124 6740 1
6124 6811 1
6125 6126 1
6125 6128 1
6125 6739 1
6125 6740 1
6125 6743 1
6126 6127 1
6126 6128 1
6126 6129 1
6127 6128 1
6127 6129 1
6127 6130 1
6127 6132 1
6127 6198 1
6127 6200 1
6127 6201 1
6128 6129 1
6128 6197 1
6128 6198 1
6128 6200 1
6128 6740 1
6128 6743 1
6128 6744 1
6128 6815 1
6129 6130 1
6129 6132 1
6129 6743 1
6129 6744 1
6129 6747 1
6130 6131 1
6130 6132 1
6130 6133 1
6131 6132 1
6131 6133 1
6131 6134 1
6131 6136 1
6131 6201 1
6131 6202 1
6131 6203 1
6132 6133 1
6132 6200 1
6132 6201 1
6132 6202 1
6132 6744 1
6132 6747 1
6132 6748 1
6132 6818 1
6133 6134 1
6133 6136 1
6133 6747 1
6133 6748 1
6133 6751 1
6134 6135 1
6134 6136 1
6134 6137 1
6135 6136 1
6135 6137 1
6135 6138 1
6135 6140 1
6135 6203 1
6135 6206 1
6135 6207 1
6136 6137 1
6136 6202 1
6136 6203 1
6136 6206 1
6136 6748 1
6136 6751 1
6136 6752 1
6136 6820 1
6137 6138 1
6137 6140 1
6137 6751 1
6137 6752 1
6137 6755 1
6138 6139 1
6138 6140 1
6138 6141 1
6139 6140 1
6139 6141 1
6139 6142 1
6139 6144 1
6139 6207 1
6139 6210 1
6139 6211 1
6140 6141 1
6140 6206 1
6140 6207 1
6140 6210 1
6140 6752 1
6140 6755 1
6140 6756 1
6140 6824 1
6141 6142 1
6141 6144 1
6141 6755 1
6141 6756 1
6141 6759 1
6142 6143 1
6142 6144 1
6142 6145 1
6143 6144 1
6143 6145 1
6143 6146 1
6143 6148 1
6143 6211 1
6143 6214 1
6143 6215 1
6144 6145 1
6144 6210 1
6144 6211 1
6144 6214 1
6144 6756 1
6144 6759 1
6144 6760 1
6144 6828 1
6145 6146 1
6145 6148 1
6145 6759 1
6145 6760 1
6145 6763 1
6146 6147 1
6146 6148 1
6146 6149 1
6147 6148 1
6147 6149 1
6147 6150 1
6147 6152 1
6147 6215 1
6147 6218 1
6147 6219 1
6148 6149 1
6148 6214 1
6148 6215 1
6148 6218 1
6148 6760 1
6148 6763 1
6148 6764 1
6148 6832 1
6149 6150 1
6149 6152 1
6149 6763 1
6149 6764 1
6149 6767 1
6150 6151 1
6150 6152 1
6150 6153 1
6151 6152 1
6151 6153 1
6151 6154 1
6151 6156 1
6151 6219 1
6151 6222 1
6151 6223 1
6152 6153 1
6152 6218 1
6152 6219 1
6152 6222 1
6152 6764 1
6152 6767 1
6152 6768 1
6152 6836 1
6153 6154 1
6153 6156 1
6153 6767 1
6153 6768 1
6153 6771 1
6154 6155 1
6154 6156 1
6154 6157 1
6155 6156 1
6155 6157 1
6155 6158 1
6155 6160 1
6155 6223 1
6155 6226 1
6155 6227 1
6156 6157 1
6156 6222 1
6156 6223 1
6156 6226 1
6156 6768 1
6156 6771 1
6156 6772 1
6156 6840 1
6157 6158 1
6157 6160 1
6157 6771 1
6157 6772 1
6157 6775 1
6158 6159 1
6158 6160 1
6158 6161 1
6159 6160 1
6159 6161 1
6159 6162 1
6159 6164 1
6159 6227 1
6159 6230 1
6159 6231 1
6160 6161 1
6160 6226 1
6160 6227 1
6160 6230 1
6160 6772 1
6160 6775 1
6160 6776 1
6160 6844 1
6161 6162 1
6161 6164 1
6161 6775 1
6161 6776 1
6161 6779 1
6162 6163 1
6162 6164 1
6162 6165 1
6163 6164 1
6163 6165 1
6163 6231 1
6163 6234 1
6164 6165 1
6164 6230 1
6164 6231 1
6164 6234 1
6164 6776 1
6164 6779 1
6164 6780 1
6164 6848 1
6165 6779 1
6165 6780 1
6166 6167 1
6166 6168 1
6166 6169 1
6167 6168 1
6167 6169 1
6167 6170 1
6167 6172 1
6167 6235 1
6167 6238 1
6167 6239 1
6168 6169 1
6168 6235 1
6168 6238 1
6168 6783 1
6168 6784 1
6168 6852 1
6169 6170 1
6169 6172 1
6169 6712 1
6169 6783 1
6169 6784 1
6169 6787 1
6170 6171 1
6170 6172 1
6170 6173 1
6171 6172 1
6171 6173 1
6171 6174 1
6171 6176 1
6171 6239 1
6171 6242 1
6171 6243 1
6172 6173 1
6172 6238 1
6172 6239 1
6172 6242 1
6172 6784 1
6172 6787 1
6172 6788 1
6172 6856 1
6173 6174 1
6173 6176 1
6173 6716 1
6173 6787 1
6173 6788 1
6173 6791 1
6174 6175 1
6174 6176 1
6174 6177 1
6175 6176 1
6175 6177 1
6175 6178 1
6175 6180 1
6175 6243 1
6175 6246 1
6175 6247 1
6176 6177 1
6176 6242 1
6176 6243 1
6176 6246 1
6176 6788 1
6176 6791 1
6176 6792 1
6176 6860 1
6177 6178 1
6177 6180 1
6177 6720 1
6177 6791 1
6177 6792 1
6177 6795 1
6178 6179 1
6178 6180 1
6178 6181 1
6179 6180 1
6179 6181 1
6179 6182 1
6179 6184 1
6179 6247 1
6179 6250 1
6179 6251 1
6180 6181 1
6180 6246 1
6180 6247 1
6180 6250 1
6180 6792 1
6180 6795 1
6180 6796 1
6180 6864 1
6181 6182 1
6181 6184 1
6181 6724 1
6181 6795 1
6181 6796 1
6181 6799 1
6182 6183 1
6182 6184 1
6182 6185 1
6183 6184 1
6183 6185 1
6183 6186 1
6183 6188 1
6183 6251 1
6183 6254 1
6183 6255 1
6184 6185 1
6184 6250 1
6184 6251 1
6184 6254 1
6184 6796 1
6184 6799 1
6184 6800 1
6184 6868 1
6185 6186 1
6185 6188 1
6185 6728 1
6185 6799 1
6185 6800 1
6185 6803 1
6186 6187 1
6186 6188 1
6186 6189 1
6187 6188 1
6187 6189 1
6187 6190 1
6187 6192 1
6187 6255 1
6187 6257 1
6187 6258 1
6188 6189 1
6188 6254 1
6188 6255 1
6188 6257 1
6188 6800 1
6188 6803 1
6188 6804 1
6188 6872 1
6189 6190 1
6189 6192 1
6189 6732 1
6189 6803 1
6189 6804 1
6189 6807 1
6190 6191 1
6190 6192 1
6190 6193 1
6191 6192 1
6191 6193 1
6191 6194 1
6191 6196 1
6191 6258 1
6192 6193 1
6192 6257 1
6192 6258 1
6192 6804 1
6192 6807 1
6192 6808 1
6192 6875 1
6193 6194 1
6193 6196 1
6193 6736 1
6193 6807 1
6193 6808 1
6193 6811 1
6194 6195 1
6194 6196 1
6194 6197 1
6195 6196 1
6195 6197 1
6195 6198 1
6195 6199 1
6196 6197 1
6196 6808 1
6196 6811 1
6196 6812 1
6197 6198 1
6197 6199 1
6197 6740 1
6197 6811 1
6197 6812 1
6197 6815 1
6198 6199 1
6198 6200 1
6199 6200 1
6199 6812 1
6199 6815 1
6200 6201 1
6200 6744 1
6200 6815 1
6200 6818 1
6201 6202 1
6202 6203 1
6202 6205 1
6202 6748 1
6202 6818 1
6202 6820 1
6203 6204 1
6203 6205 1
6203 6206 1
6204 6205 1
6204 6206 1
6204 6207 1
6204 6209 1
6205 6206 1
6205 6820 1
6205 6821 1
6206 6207 1
6206 6209 1
6206 6752 1
6206 6820 1
6206 6821 1
6206 6824 1
6207 6208 1
6207 6209 1
6207 6210 1
6208 6209 1
6208 6210 1
6208 6211 1
6208 6213 1
6208 6259 1
6209 6210 1
6209 6821 1
6209 6824 1
6209 6825 1
6210 6211 1
6210 6213 1
6210 6756 1
6210 6824 1
6210 6825 1
6210 6828 1
6211 6212 1
6211 6213 1
6211 6214 1
6212 6213 1
6212 6214 1
6212 6215 1
6212 6217 1
6212 6259 1
6212 6260 1
6212 6261 1
6213 6214 1
6213 6259 1
6213 6260 1
6213 6825 1
6213 6828 1
6213 6829 1
6213 6876 1
6214 6215 1
6214 6217 1
6214 6760 1
6214 6828 1
6214 6829 1
6214 6832 1
6215 6216 1
6215 6217 1
6215 6218 1
6216 6217 1
6216 6218 1
6216 6219 1
6216 6221 1
6216 6261 1
6216 6264 1
6216 6265 1
6217 6218 1
6217 6260 1
6217 6261 1
6217 6264 1
6217 6829 1
6217 6832 1
6217 6833 1
6217 6878 1
6218 6219 1
6218 6221 1
6218 6764 1
6218 6832 1
6218 6833 1
6218 6836 1
6219 6220 1
6219 6221 1
6219 6222 1
6220 6221 1
6220 6222 1
6220 6223 1
6220 6225 1
6220 6265 1
6220 6268 1
6220 6269 1
6221 6222 1
6221 6264 1
6221 6265 1
6221 6268 1
6221 6833 1
6221 6836 1
6221 6837 1
6221 6882 1
6222 6223 1
6222 6225 1
6222 6768 1
6222 6836 1
6222 6837 1
6222 6840 1
6223 6224 1
6223 6225 1
6223 6226 1
6224 6225 1
6224 6226 1
6224 6227 1
6224 6229 1
6224 6269 1
6224 6272 1
6224 6273 1
6225 6226 1
6225 6268 1
6225 6269 1
6225 6272 1
6225 6837 1
6225 6840 1
6225 6841 1
6225 6886 1
6226 6227 1
6226 6229 1
6226 6772 1
6226 6840 1
6226 6841 1
6226 6844 1
6227 6228 1
6227 6229 1
6227 6230 1
6228 6229 1
6228 6230 1
6228 6231 1
6228 6233 1
6228 6273 1
6228 6276 1
6228 6277 1
6229 6230 1
6229 6272 1
6229 6273 1
6229 6276 1
6229 6841 1
6229 6844 1
6229 6845 1
6229 6890 1
6230 6231 1
6230 6233 1
6230 6776 1
6230 6844 1
6230 6845 1
6230 6848 1
6231 6232 1
6231 6233 1
6231 6234 1
6232 6233 1
6232 6234 1
6232 6277 1
6232 6280 1
6233 6234 1
6233 6276 1
6233 6277 1
6233 6280 1
6233 6845 1
6233 6848 1
6233 6849 1
6233 6894 1
6234 6780 1
6234 6848 1
6234 6849 1
6235 6236 1
6235 6237 1
6235 6238 1
6236 6237 1
6236 6238 1
6236 6239 1
6236 6241 1
6236 6281 1
6236 6284 1
6236 6285 1
6237 6238 1
6237 6281 1
6237 6284 1
6237 6852 1
6237 6853 1
6237 6898 1
6238 6239 1
6238 6241 1
6238 6784 1
6238 6852 1
6238 6853 1
6238 6856 1
6239 6240 1
6239 6241 1
6239 6242 1
6240 6241 1
6240 6242 1
6240 6243 1
6240 6245 1
6240 6285 1
6240 6288 1
6240 6289 1
6241 6242 1
6241 6284 1
6241 6285 1
6241 6288 1
6241 6853 1
6241 6856 1
6241 6857 1
6241 6902 1
6242 6243 1
6242 6245 1
6242 6788 1
6242 6856 1
6242 6857 1
6242 6860 1
6243 6244 1
6243 6245 1
6243 6246 1
6244 6245 1
6244 6246 1
6244 6247 1
6244 6249 1
6244 6289 1
6244 6292 1
6244 6293 1
6245 6246 1
6245 6288 1
6245 6289 1
6245 6292 1
6245 6857 1
6245 6860 1
6245 6861 1
6245 6906 1
6246 6247 1
6246 6249 1
6246 6792 1
6246 6860 1
6246 6861 1
6246 6864 1
6247 6248 1
6247 6249 1
6247 6250 1
6248 6249 1
6248 6250 1
6248 6251 1
6248 6253 1
6248 6293 1
6248 6296 1
6248 6297 1
6249 6250 1
6249 6292 1
6249 6293 1
6249 6296 1
6249 6861 1
6249 6864 1
6249 6865 1
6249 6910 1
6250 6251 1
6250 6253 1
6250 6796 1
6250 6864 1
6250 6865 1
6250 6868 1
6251 6252 1
6251 6253 1
6251 6254 1
6252 6253 1
6252 6254 1
6252 6255 1
6252 6256 1
6252 6297 1
6253 6254 1
6253 6296 1
6253 6297 1
6253 6865 1
6253 6868 1
6253 6869 1
6253 6914 1
6254 6255 1
6254 6256 1
6254 6800 1
6254 6868 1
6254 6869 1
6254 6872 1
6255 6256 1
6255 6257 1
6256 6257 1
6256 6869 1
6256 6872 1
6257 6258 1
6257 6804 1
6257 6872 1
6257 6875 1
6259 6260 1
6260 6261 1
6260 6263 1
6260 6829 1
6260 6876 1
6260 6878 1
6261 6262 1
6261 6263 1
6261 6264 1
6262 6263 1
6262 6264 1
6262 6265 1
6262 6267 1
6262 6298 1
6262 6299 1
6263 6264 1
6263 6298 1
6263 6878 1
6263 6879 1
6264 6265 1
6264 6267 1
6264 6833 1
6264 6878 1
6264 6879 1
6264 6882 1
6265 6266 1
6265 6267 1
6265 6268 1
6266 6267 1
6266 6268 1
6266 6269 1
6266 6271 1
6266 6299 1
6266 6302 1
6266 6303 1
6267 6268 1
6267 6298 1
6267 6299 1
6267 6302 1
6267 6879 1
6267 6882 1
6267 6883 1
6267 6916 1
6268 6269 1
6268 6271 1
6268 6837 1
6268 6882 1
6268 6883 1
6268 6886 1
6269 6270 1
6269 6271 1
6269 6272 1
6270 6271 1
6270 6272 1
6270 6273 1
6270 6275 1
6270 6303 1
6270 6306 1
6270 6307 1
6271 6272 1
6271 6302 1
6271 6303 1
6271 6306 1
6271 6883 1
6271 6886 1
6271 6887 1
6271 6920 1
6272 6273 1
6272 6275 1
6272 6841 1
6272 6886 1
6272 6887 1
6272 6890 1
6273 6274 1
6273 6275 1
6273 6276 1
6274 6275 1
6274 6276 1
6274 6277 1
6274 6279 1
6274 6307 1
6274 6310 1
6274 6311 1
6275 6276 1
6275 6306 1
6275 6307 1
6275 6310 1
6275 6887 1
6275 6890 1
6275 6891 1
6275 6924 1
6276 6277 1
6276 6279 1
6276 6845 1
6276 6890 1
6276 6891 1
6276 6894 1
6277 6278 1
6277 6279 1
6277 6280 1
6278 6279 1
6278 6280 1
6278 6311 1
6278 6314 1
6279 6280 1
6279 6310 1
6279 6311 1
6279 6314 1
6279 6891 1
6279 6894 1
6279 6895 1
6279 6928 1
6280 6849 1
6280 6894 1
6280 6895 1
6281 6282 1
6281 6283 1
6281 6284 1
6282 6283 1
6282 6284 1
6282 6285 1
6282 6287 1
6282 6315 1
6282 6318 1
6282 6319 1
6283 6284 1
6283 6315 1
6283 6318 1
6283 6898 1
6283 6899 1
6283 6932 1
6284 6285 1
6284 6287 1
6284 6853 1
6284 6898 1
6284 6899 1
6284 6902 1
6285 6286 1
6285 6287 1
6285 6288 1
6286 6287 1
6286 6288 1
6286 6289 1
6286 6291 1
6286 6319 1
6286 6322 1
6286 6323 1
6287 6288 1
6287 6318 1
6287 6319 1
6287 6322 1
6287 6899 1
6287 6902 1
6287 6903 1
6287 6936 1
6288 6289 1
6288 6291 1
6288 6857 1
6288 6902 1
6288 6903 1
6288 6906 1
6289 6290 1
6289 6291 1
6289 6292 1
6290 6291 1
6290 6292 1
6290 6293 1
6290 6295 1
6290 6323 1
6290 6326 1
6290 6327 1
6291 6292 1
6291 6322 1
6291 6323 1
6291 6326 1
6291 6903 1
6291 6906 1
6291 6907 1
6291 6940 1
6292 6293 1
6292 6295 1
6292 6861 1
6292 6906 1
6292 6907 1
6292 6910 1
6293 6294 1
6293 6295 1
6293 6296 1
6294 6295 1
6294 6296 1
6294 6297 1
6294 6327 1
6295 6296 1
6295 6326 1
6295 6327 1
6295 6907 1
6295 6910 1
6295 6911 1
6295 6944 1
6296 6297 1
6296 6865 1
6296 6910 1
6296 6911 1
6296 6914 1
6298 6299 1
6298 6301 1
6298 6879 1
6298 6916 1
6299 6300 1
6299 6301 1
6299 6302 1
6300 6301 1
6300 6302 1
6300 6303 1
6300 6305 1
6300 6328 1
6300 6329 1
6301 6302 1
6301 6328 1
6301 6916 1
6301 6917 1
6302 6303 1
6302 6305 1
6302 6883 1
6302 6916 1
6302 6917 1
6302 6920 1
6303 6304 1
6303 6305 1
6303 6306 1
6304 6305 1
6304 6306 1
6304 6307 1
6304 6309 1
6304 6329 1
6304 6332 1
6304 6333 1
6305 6306 1
6305 6328 1
6305 6329 1
6305 6332 1
6305 6917 1
6305 6920 1
6305 6921 1
6305 6946 1
6306 6307 1
6306 6309 1
6306 6887 1
6306 6920 1
6306 6921 1
6306 6924 1
6307 6308 1
6307 6309 1
6307 6310 1
6308 6309 1
6308 6310 1
6308 6311 1
6308 6313 1
6308 6333 1
6308 6336 1
6308 6337 1
6309 6310 1
6309 6332 1
6309 6333 1
6309 6336 1
6309 6921 1
6309 6924 1
6309 6925 1
6309 6950 1
6310 6311 1
6310 6313 1
6310 6891 1
6310 6924 1
6310 6925 1
6310 6928 1
6311 6312 1
6311 6313 1
6311 6314 1
6312 6313 1
6312 6314 1
6312 6337 1
6312 6340 1
6313 6314 1
6313 6336 1
6313 6337 1
6313 6340 1
6313 6925 1
6313 6928 1
6313 6929 1
6313 6954 1
6314 6895 1
6314 6928 1
6314 6929 1
6315 6316 1
6315 6317 1
6315 6318 1
6316 6317 1
6316 6318 1
6316 6319 1
6316 6321 1
6316 6341 1
6316 6344 1
6316 6345 1
6317 6318 1
6317 6341 1
6317 6344 1
6317 6932 1
6317 6933 1
6317 6958 1
6318 6319 1
6318 6321 1
6318 6899 1
6318 6932 1
6318 6933 1
6318 6936 1
6319 6320 1
6319 6321 1
6319 6322 1
6320 6321 1
6320 6322 1
6320 6323 1
6320 6325 1
6320 6345 1
6320 6348 1
6320 6349 1
6321 6322 1
6321 6344 1
6321 6345 1
6321 6348 1
6321 6933 1
6321 6936 1
6321 6937 1
6321 6962 1
6322 6323 1
6322 6325 1
6322 6903 1
6322 6936 1
6322 6937 1
6322 6940 1
6323 6324 1
6323 6325 1
6323 6326 1
6324 6325 1
6324 6326 1
6324 6327 1
6324 6349 1
6324 6351 1
6325 6326 1
6325 6348 1
6325 6349 1
6325 6351 1
6325 6937 1
6325 6940 1
6325 6941 1
6325 6966 1
6326 6327 1
6326 6907 1
6326 6940 1
6326 6941 1
6326 6944 1
6328 6329 1
6328 6331 1
6328 6917 1
6328 6946 1
6329 6330 1
6329 6331 1
6329 6332 1
6330 6331 1
6330 6332 1
6330 6333 1
6330 6335 1
6330 6353 1
6330 6354 1
6331 6332 1
6331 6353 1
6331 6946 1
6331 6947 1
6332 6333 1
6332 6335 1
6332 6921 1
6332 6946 1
6332 6947 1
6332 6950 1
6333 6334 1
6333 6335 1
6333 6336 1
6334 6335 1
6334 6336 1
6334 6337 1
6334 6339 1
6334 6354 1
6334 6357 1
6334 6358 1
6335 6336 1
6335 6353 1
6335 6354 1
6335 6357 1
6335 6947 1
6335 6950 1
6335 6951 1
6335 6971 1
6336 6337 1
6336 6339 1
6336 6925 1
6336 6950 1
6336 6951 1
6336 6954 1
6337 6338 1
6337 6339 1
6337 6340 1
6338 6339 1
6338 6340 1
6338 6358 1
6338 6361 1
6339 6340 1
6339 6357 1
6339 6358 1
6339 6361 1
6339 6951 1
6339 6954 1
6339 6955 1
6339 6975 1
6340 6929 1
6340 6954 1
6340 6955 1
6341 6342 1
6341 6343 1
6341 6344 1
6342 6343 1
6342 6344 1
6342 6345 1
6342 6347 1
6342 6362 1
6342 6365 1
6342 6366 1
6343 6344 1
6343 6362 1
6343 6365 1
6343 6958 1
6343 6959 1
6343 6979 1
6344 6345 1
6344 6347 1
6344 6933 1
6344 6958 1
6344 6959 1
6344 6962 1
6345 6346 1
6345 6347 1
6345 6348 1
6346 6347 1
6346 6348 1
6346 6349 1
6346 6350 1
6346 6366 1
6346 6369 1
6346 6370 1
6347 6348 1
6347 6365 1
6347 6366 1
6347 6369 1
6347 6959 1
6347 6962 1
6347 6963 1
6347 6983 1
6348 6349 1
6348 6350 1
6348 6937 1
6348 6962 1
6348 6963 1
6348 6966 1
6349 6350 1
6349 6351 1
6350 6351 1
6350 6369 1
6350 6370 1
6350 6963 1
6350 6966 1
6350 6987 1
6351 6941 1
6351 6966 1
6352 6353 1
6352 6354 1
6352 6356 1
6352 6371 1
6353 6354 1
6353 6356 1
6353 6947 1
6353 6969 1
6353 6971 1
6354 6355 1
6354 6356 1
6354 6357 1
6355 6356 1
6355 6357 1
6355 6358 1
6355 6360 1
6355 6371 1
6355 6374 1
6355 6375 1
6356 6357 1
6356 6371 1
6356 6374 1
6356 6969 1
6356 6971 1
6356 6972 1
6356 6988 1
6357 6358 1
6357 6360 1
6357 6951 1
6357 6971 1
6357 6972 1
6357 6975 1
6358 6359 1
6358 6360 1
6358 6361 1
6359 6360 1
6359 6361 1
6359 6375 1
6359 6378 1
6360 6361 1
6360 6374 1
6360 6375 1
6360 6378 1
6360 6972 1
6360 6975 1
6360 6976 1
6360 6992 1
6361 6955 1
6361 6975 1
6361 6976 1
6362 6363 1
6362 6364 1
6362 6365 1
6363 6364 1
6363 6365 1
6363 6366 1
6363 6368 1
6363 6379 1
6363 6382 1
6363 6383 1
6364 6365 1
6364 6379 1
6364 6382 1
6364 6979 1
6364 6980 1
6364 6996 1
6365 6366 1
6365 6368 1
6365 6959 1
6365 6979 1
6365 6980 1
6365 6983 1
6366 6367 1
6366 6368 1
6366 6369 1
6367 6368 1
6367 6369 1
6367 6370 1
6367 6383 1
6367 6386 1
6368 6369 1
6368 6382 1
6368 6383 1
6368 6386 1
6368 6980 1
6368 6983 1
6368 6984 1
6368 7000 1
6369 6370 1
6369 6963 1
6369 6983 1
6369 6984 1
6369 6987 1
6371 6372 1
6371 6373 1
6371 6374 1
6372 6373 1
6372 6374 1
6372 6375 1
6372 6377 1
6372 6387 1
6372 6389 1
6372 6390 1
6373 6374 1
6373 6387 1
6373 6389 1
6373 6988 1
6373 6989 1
6373 7004 1
6374 6375 1
6374 6377 1
6374 6972 1
6374 6988 1
6374 6989 1
6374 6992 1
6375 6376 1
6375 6377 1
6375 6378 1
6376 6377 1
6376 6378 1
6376 6390 1
6376 6393 1
6377 6378 1
6377 6389 1
6377 6390 1
6377 6393 1
6377 6989 1
6377 6992 1
6377 6993 1
6377 7007 1
6378 6976 1
6378 6992 1
6378 6993 1
6379 6380 1
6379 6381 1
6379 6382 1
6380 6381 1
6380 6382 1
6380 6383 1
6380 6385 1
6380 6394 1
6380 6397 1
6380 6398 1
6381 6382 1
6381 6394 1
6381 6397 1
6381 6996 1
6381 6997 1
6381 7011 1
6382 6383 1
6382 6385 1
6382 6980 1
6382 6996 1
6382 6997 1
6382 7000 1
6383 6384 1
6383 6385 1
6383 6386 1
6384 6385 1
6384 6386 1
6384 6398 1
6384 6400 1
6385 6386 1
6385 6397 1
6385 6398 1
6385 6400 1
6385 6997 1
6385 7000 1
6385 7001 1
6385 7015 1
6386 6984 1
6386 7000 1
6386 7001 1
6387 6388 1
6387 6389 1
6388 6389 1
6388 6390 1
6388 6392 1
6388 6402 1
6388 6403 1
6389 6390 1
6389 6392 1
6389 6989 1
6389 7004 1
6389 7005 1
6389 7007 1
6390 6391 1
6390 6392 1
6390 6393 1
6391 6392 1
6391 6393 1
6391 6403 1
6391 6406 1
6392 6393 1
6392 6402 1
6392 6403 1
6392 6406 1
6392 7005 1
6392 7007 1
6392 7008 1
6392 7020 1
6393 6993 1
6393 7007 1
6393 7008 1
6394 6395 1
6394 6396 1
6394 6397 1
6395 6396 1
6395 6397 1
6395 6398 1
6395 6399 1
6395 6407 1
6395 6410 1
6395 6411 1
6396 6397 1
6396 6407 1
6396 6410 1
6396 7011 1
6396 7012 1
6396 7024 1
6397 6398 1
6397 6399 1
6397 6997 1
6397 7011 1
6397 7012 1
6397 7015 1
6398 6399 1
6398 6400 1
6399 6400 1
6399 6410 1
6399 6411 1
6399 7012 1
6399 7015 1
6399 7028 1
6400 7001 1
6400 7015 1
6401 6402 1
6401 6403 1
6401 6405 1
6401 6414 1
6401 6415 1
6402 6403 1
6402 6405 1
6402 7005 1
6402 7018 1
6402 7020 1
6403 6404 1
6403 6405 1
6403 6406 1
6404 6405 1
6404 6406 1
6404 6415 1
6404 6418 1
6405 6406 1
6405 6414 1
6405 6415 1
6405 6418 1
6405 7018 1
6405 7020 1
6405 7021 1
6405 7032 1
6406 7008 1
6406 7020 1
6406 7021 1
6407 6408 1
6407 6409 1
6407 6410 1
6408 6409 1
6408 6410 1
6408 6411 1
6408 6412 1
6408 6419 1
6408 6422 1
6408 6423 1
6409 6410 1
6409 6419 1
6409 6422 1
6409 7024 1
6409 7025 1
6409 7036 1
6410 6411 1
6410 6412 1
6410 7012 1
6410 7024 1
6410 7025 1
6410 7028 1
6411 6412 1
6412 6422 1
6412 6423 1
6412 6426 1
6412 7025 1
6412 7028 1
6412 7040 1
6413 6414 1
6413 6415 1
6413 6417 1
6413 6429 1
6413 6430 1
6414 6415 1
6414 6417 1
6414 7018 1
6414 7030 1
6414 7032 1
6415 6416 1
6415 6417 1
6415 6418 1
6416 6417 1
6416 6418 1
6416 6430 1
6416 6433 1
6417 6418 1
6417 6429 1
6417 6430 1
6417 6433 1
6417 7030 1
6417 7032 1
6417 7033 1
6417 7047 1
6418 7021 1
6418 7032 1
6418 7033 1
6419 6420 1
6419 6421 1
6419 6422 1
6420 6421 1
6420 6422 1
6420 6423 1
6420 6425 1
6420 6434 1
6420 6437 1
6420 6438 1
6421 6422 1
6421 6434 1
6421 6437 1
6421 7036 1
6421 7037 1
6421 7051 1
6422 6423 1
6422 6425 1
6422 7025 1
6422 7036 1
6422 7037 1
6422 7040 1
6423 6424 1
6423 6425 1
6423 6426 1
6424 6425 1
6424 6426 1
6424 6438 1
6424 6441 1
6425 6426 1
6425 6437 1
6425 6438 1
6425 6441 1
6425 7037 1
6425 7040 1
6425 7041 1
6425 7055 1
6426 7040 1
6426 7041 1
6427 6428 1
6427 6429 1
6427 6430 1
6427 6432 1
6427 6442 1
6427 6445 1
6427 6446 1
6428 6429 1
6428 6442 1
6428 6445 1
6428 7044 1
6428 7059 1
6429 6430 1
6429 6432 1
6429 7030 1
6429 7044 1
6429 7047 1
6430 6431 1
6430 6432 1
6430 6433 1
6431 6432 1
6431 6433 1
6431 6446 1
6431 6449 1
6432 6433 1
6432 6445 1
6432 6446 1
6432 6449 1
6432 7044 1
6432 7047 1
6432 7048 1
6432 7063 1
6433 7033 1
6433 7047 1
6433 7048 1
6434 6435 1
6434 6436 1
6434 6437 1
6435 6436 1
6435 6437 1
6435 6438 1
6435 6440 1
6435 6450 1
6435 6453 1
6435 6454 1
6436 6437 1
6436 6450 1
6436 6453 1
6436 7051 1
6436 7052 1
6436 7067 1
6437 6438 1
6437 6440 1
6437 7037 1
6437 7051 1
6437 7052 1
6437 7055 1
6438 6439 1
6438 6440 1
6438 6441 1
6439 6440 1
6439 6441 1
6439 6454 1
6439 6457 1
6439 6458 1
6440 6441 1
6440 6453 1
6440 6454 1
6440 6457 1
6440 7052 1
6440 7055 1
6440 7056 1
6440 7071 1
6441 7041 1
6441 7055 1
6441 7056 1
6442 6443 1
6442 6444 1
6442 6445 1
6443 6444 1
6443 6445 1
6443 6446 1
6443 6448 1
6443 6462 1
6443 6465 1
6443 6466 1
6444 6445 1
6444 6461 1
6444 6462 1
6444 6465 1
6444 7059 1
6444 7060 1
6444 7079 1
6445 6446 1
6445 6448 1
6445 7044 1
6445 7059 1
6445 7060 1
6445 7063 1
6446 6447 1
6446 6448 1
6446 6449 1
6447 6448 1
6447 6449 1
6447 6466 1
6447 6469 1
6448 6449 1
6448 6465 1
6448 6466 1
6448 6469 1
6448 7060 1
6448 7063 1
6448 7064 1
6448 7083 1
6449 7048 1
6449 7063 1
6449 7064 1
6450 6451 1
6450 6452 1
6450 6453 1
6451 6452 1
6451 6453 1
6451 6454 1
6451 6456 1
6451 6470 1
6451 6473 1
6451 6474 1
6452 6453 1
6452 6470 1
6452 6473 1
6452 7067 1
6452 7068 1
6452 7087 1
6453 6454 1
6453 6456 1
6453 7052 1
6453 7067 1
6453 7068 1
6453 7071 1
6454 6455 1
6454 6456 1
6454 6457 1
6455 6456 1
6455 6457 1
6455 6458 1
6455 6459 1
6455 6474 1
6455 6477 1
6455 6478 1
6456 6457 1
6456 6473 1
6456 6474 1
6456 6477 1
6456 7068 1
6456 7071 1
6456 7072 1
6456 7091 1
6457 6458 1
6457 6459 1
6457 7056 1
6457 7071 1
6457 7072 1
6457 7075 1
6458 6459 1
6459 6477 1
6459 6478 1
6459 6481 1
6459 7072 1
6459 7075 1
6459 7095 1
6460 6461 1
6460 6462 1
6460 6464 1
6460 6484 1
6460 6487 1
6460 6488 1
6461 6462 1
6461 6464 1
6461 7077 1
6461 7079 1
6462 6463 1
6462 6464 1
6462 6465 1
6463 6464 1
6463 6465 1
6463 6466 1
6463 6468 1
6463 6488 1
6463 6491 1
6463 6492 1
6464 6465 1
6464 6487 1
6464 6488 1
6464 6491 1
6464 7077 1
6464 7079 1
6464 7080 1
6464 7105 1
6465 6466 1
6465 6468 1
6465 7060 1
6465 7079 1
6465 7080 1
6465 7083 1
6466 6467 1
6466 6468 1
6466 6469 1
6467 6468 1
6467 6469 1
6467 6492 1
6467 6495 1
6468 6469 1
6468 6491 1
6468 6492 1
6468 6495 1
6468 7080 1
6468 7083 1
6468 7084 1
6468 7109 1
6469 7064 1
6469 7083 1
6469 7084 1
6470 6471 1
6470 6472 1
6470 6473 1
6471 6472 1
6471 6473 1
6471 6474 1
6471 6476 1
6471 6496 1
6471 6499 1
6471 6500 1
6472 6473 1
6472 6496 1
6472 6499 1
6472 7087 1
6472 7088 1
6472 7113 1
6473 6474 1
6473 6476 1
6473 7068 1
6473 7087 1
6473 7088 1
6473 7091 1
6474 6475 1
6474 6476 1
6474 6477 1
6475 6476 1
6475 6477 1
6475 6478 1
6475 6480 1
6475 6500 1
6475 6503 1
6475 6504 1
6476 6477 1
6476 6499 1
6476 6500 1
6476 6503 1
6476 7088 1
6476 7091 1
6476 7092 1
6476 7117 1
6477 6478 1
6477 6480 1
6477 7072 1
6477 7091 1
6477 7092 1
6477 7095 1
6478 6479 1
6478 6480 1
6478 6481 1
6479 6480 1
6479 6481 1
6479 6482 1
6479 6504 1
6479 6507 1
6479 6508 1
6480 6481 1
6480 6503 1
6480 6504 1
6480 6507 1
6480 7092 1
6480 7095 1
6480 7096 1
6480 7121 1
6481 6482 1
6481 7095 1
6481 7096 1
6482 6507 1
6482 6508 1
6482 6511 1
6482 7096 1
6482 7125 1
6483 6484 1
6483 6486 1
6483 6516 1
6483 6517 1
6484 6485 1
6484 6486 1
6484 6487 1
6485 6486 1
6485 6487 1
6485 6488 1
6485 6490 1
6485 6517 1
6485 6520 1
6485 6521 1
6486 6487 1
6486 6516 1
6486 6517 1
6486 6520 1
6486 7100 1
6486 7101 1
6486 7102 1
6486 7134 1
6487 6488 1
6487 6490 1
6487 7077 1
6487 7101 1
6487 7102 1
6487 7105 1
6488 6489 1
6488 6490 1
6488 6491 1
6489 6490 1
6489 6491 1
6489 6492 1
6489 6494 1
6489 6521 1
6489 6524 1
6489 6525 1
6490 6491 1
6490 6520 1
6490 6521 1
6490 6524 1
6490 7102 1
6490 7105 1
6490 7106 1
6490 7138 1
6491 6492 1
6491 6494 1
6491 7080 1
6491 7105 1
6491 7106 1
6491 7109 1
6492 6493 1
6492 6494 1
6492 6495 1
6493 6494 1
6493 6495 1
6493 6525 1
6493 6528 1
6494 6495 1
6494 6524 1
6494 6525 1
6494 6528 1
6494 7106 1
6494 7109 1
6494 7110 1
6494 7142 1
6495 7084 1
6495 7109 1
6495 7110 1
6496 6497 1
6496 6498 1
6496 6499 1
6497 6498 1
6497 6499 1
6497 6500 1
6497 6502 1
6497 6529 1
6497 6532 1
6497 6533 1
6498 6499 1
6498 6529 1
6498 6532 1
6498 7113 1
6498 7114 1
6498 7146 1
6499 6500 1
6499 6502 1
6499 7088 1
6499 7113 1
6499 7114 1
6499 7117 1
6500 6501 1
6500 6502 1
6500 6503 1
6501 6502 1
6501 6503 1
6501 6504 1
6501 6506 1
6501 6533 1
6501 6536 1
6501 6537 1
6502 6503 1
6502 6532 1
6502 6533 1
6502 6536 1
6502 7114 1
6502 7117 1
6502 7118 1
6502 7150 1
6503 6504 1
6503 6506 1
6503 7092 1
6503 7117 1
6503 7118 1
6503 7121 1
6504 6505 1
6504 6506 1
6504 6507 1
6505 6506 1
6505 6507 1
6505 6508 1
6505 6510 1
6505 6537 1
6505 6540 1
6505 6541 1
6506 6507 1
6506 6536 1
6506 6537 1
6506 6540 1
6506 7118 1
6506 7121 1
6506 7122 1
6506 7154 1
6507 6508 1
6507 6510 1
6507 7096 1
6507 7121 1
6507 7122 1
6507 7125 1
6508 6509 1
6508 6510 1
6508 6511 1
6509 6510 1
6509 6511 1
6509 6512 1
6509 6541 1
6509 6544 1
6509 6545 1
6510 6511 1
6510 6540 1
6510 6541 1
6510 6544 1
6510 7122 1
6510 7125 1
6510 7126 1
6510 7158 1
6511 6512 1
6511 7125 1
6511 7126 1
6512 6544 1
6512 6545 1
6512 6548 1
6512 7126 1
6512 7162 1
6513 6515 1
6513 6553 1
6513 6556 1
6513 6557 1
6514 6515 1
6514 6516 1
6514 6517 1
6514 6519 1
6514 6557 1
6514 6560 1
6514 6561 1
6515 6516 1
6515 6556 1
6515 6557 1
6515 6560 1
6515 7130 1
6515 7131 1
6515 7174 1
6516 6517 1
6516 6519 1
6516 7100 1
6516 7131 1
6516 7134 1
6517 6518 1
6517 6519 1
6517 6520 1
6518 6519 1
6518 6520 1
6518 6521 1
6518 6523 1
6518 6561 1
6518 6564 1
6518 6565 1
6519 6520 1
6519 6560 1
6519 6561 1
6519 6564 1
6519 7131 1
6519 7134 1
6519 7135 1
6519 7178 1
6520 6521 1
6520 6523 1
6520 7102 1
6520 7134 1
6520 7135 1
6520 7138 1
6521 6522 1
6521 6523 1
6521 6524 1
6522 6523 1
6522 6524 1
6522 6525 1
6522 6527 1
6522 6565 1
6522 6568 1
6522 6569 1
6523 6524 1
6523 6564 1
6523 6565 1
6523 6568 1
6523 7135 1
6523 7138 1
6523 7139 1
6523 7182 1
6524 6525 1
6524 6527 1
6524 7106 1
6524 7138 1
6524 7139 1
6524 7142 1
6525 6526 1
6525 6527 1
6525 6528 1
6526 6527 1
6526 6528 1
6526 6569 1
6526 6572 1
6527 6528 1
6527 6568 1
6527 6569 1
6527 6572 1
6527 7139 1
6527 7142 1
6527 7143 1
6527 7186 1
6528 7110 1
6528 7142 1
6528 7143 1
6529 6530 1
6529 6531 1
6529 6532 1
6530 6531 1
6530 6532 1
6530 6533 1
6530 6535 1
6530 6573 1
6530 6576 1
6530 6577 1
6531 6532 1
6531 6573 1
6531 6576 1
6531 7146 1
6531 7147 1
6531 7190 1
6532 6533 1
6532 6535 1
6532 7114 1
6532 7146 1
6532 7147 1
6532 7150 1
6533 6534 1
6533 6535 1
6533 6536 1
6534 6535 1
6534 6536 1
6534 6537 1
6534 6539 1
6534 6577 1
6534 6580 1
6534 6581 1
6535 6536 1
6535 6576 1
6535 6577 1
6535 6580 1
6535 7147 1
6535 7150 1
6535 7151 1
6535 7194 1
6536 6537 1
6536 6539 1
6536 7118 1
6536 7150 1
6536 7151 1
6536 7154 1
6537 6538 1
6537 6539 1
6537 6540 1
6538 6539 1
6538 6540 1
6538 6541 1
6538 6543 1
6538 6581 1
6538 6584 1
6538 6585 1
6539 6540 1
6539 6580 1
6539 6581 1
6539 6584 1
6539 7151 1
6539 7154 1
6539 7155 1
6539 7198 1
6540 6541 1
6540 6543 1
6540 7122 1
6540 7154 1
6540 7155 1
6540 7158 1
6541 6542 1
6541 6543 1
6541 6544 1
6542 6543 1
6542 6544 1
6542 6545 1
6542 6547 1
6542 6585 1
6542 6588 1
6542 6589 1
6543 6544 1
6543 6584 1
6543 6585 1
6543 6588 1
6543 7155 1
6543 7158 1
6543 7159 1
6543 7202 1
6544 6545 1
6544 6547 1
6544 7126 1
6544 7158 1
6544 7159 1
6544 7162 1
6545 6546 1
6545 6547 1
6545 6548 1
6546 6547 1
6546 6548 1
6546 6550 1
6546 6589 1
6546 6592 1
6546 6593 1
6547 6548 1
6547 6588 1
6547 6589 1
6547 6592 1
6547 7159 1
6547 7162 1
6547 7163 1
6547 7206 1
6548 6550 1
6548 7162 1
6548 7163 1
6549 6550 1
6549 6593 1
6549 6596 1
6549 6597 1
6550 6592 1
6550 6593 1
6550 6596 1
6550 7163 1
6550 7166 1
6550 7210 1
6551 6552 1
6551 6553 1
6551 6555 1
6551 6615 1
6551 6618 1
6551 6619 1
6552 6614 1
6552 6615 1
6552 6618 1
6552 7168 1
6552 7232 1
6553 6554 1
6553 6555 1
6553 6556 1
6554 6555 1
6554 6556 1
6554 6557 1
6554 6559 1
6554 6619 1
6554 6622 1
6554 6623 1
6555 6556 1
6555 6618 1
6555 6619 1
6555 6622 1
6555 7168 1
6555 7170 1
6555 7171 1
6555 7236 1
6556 6557 1
6556 6559 1
6556 7130 1
6556 7170 1
6556 7171 1
6556 7174 1
6557 6558 1
6557 6559 1
6557 6560 1
6558 6559 1
6558 6560 1
6558 6561 1
6558 6563 1
6558 6623 1
6558 6626 1
6558 6627 1
6559 6560 1
6559 6622 1
6559 6623 1
6559 6626 1
6559 7171 1
6559 7174 1
6559 7175 1
6559 7240 1
6560 6561 1
6560 6563 1
6560 7131 1
6560 7174 1
6560 7175 1
6560 7178 1
6561 6562 1
6561 6563 1
6561 6564 1
6562 6563 1
6562 6564 1
6562 6565 1
6562 6567 1
6562 6627 1
6562 6630 1
6562 6631 1
6563 6564 1
6563 6626 1
6563 6627 1
6563 6630 1
6563 7175 1
6563 7178 1
6563 7179 1
6563 7244 1
6564 6565 1
6564 6567 1
6564 7135 1
6564 7178 1
6564 7179 1
6564 7182 1
6565 6566 1
6565 6567 1
6565 6568 1
6566 6567 1
6566 6568 1
6566 6569 1
6566 6571 1
6566 6631 1
6566 6634 1
6566 6635 1
6567 6568 1
6567 6630 1
6567 6631 1
6567 6634 1
6567 7179 1
6567 7182 1
6567 7183 1
6567 7248 1
6568 6569 1
6568 6571 1
6568 7139 1
6568 7182 1
6568 7183 1
6568 7186 1
6569 6570 1
6569 6571 1
6569 6572 1
6570 6571 1
6570 6572 1
6570 6635 1
6570 6638 1
6571 6572 1
6571 6634 1
6571 6635 1
6571 6638 1
6571 7183 1
6571 7186 1
6571 7187 1
6571 7252 1
6572 7143 1
6572 7186 1
6572 7187 1
6573 6574 1
6573 6575 1
6573 6576 1
6574 6575 1
6574 6576 1
6574 6577 1
6574 6579 1
6574 6639 1
6574 6642 1
6574 6643 1
6575 6576 1
6575 6639 1
6575 6642 1
6575 7190 1
6575 7191 1
6575 7256 1
6576 6577 1
6576 6579 1
6576 7147 1
6576 7190 1
6576 7191 1
6576 7194 1
6577 6578 1
6577 6579 1
6577 6580 1
6578 6579 1
6578 6580 1
6578 6581 1
6578 6583 1
6578 6643 1
6578 6646 1
6578 6647 1
6579 6580 1
6579 6642 1
6579 6643 1
6579 6646 1
6579 7191 1
6579 7194 1
6579 7195 1
6579 7260 1
6580 6581 1
6580 6583 1
6580 7151 1
6580 7194 1
6580 7195 1
6580 7198 1
6581 6582 1
6581 6583 1
6581 6584 1
6582 6583 1
6582 6584 1
6582 6585 1
6582 6587 1
6582 6647 1
6582 6650 1
6582 6651 1
6583 6584 1
6583 6646 1
6583 6647 1
6583 6650 1
6583 7195 1
6583 7198 1
6583 7199 1
6583 7264 1
6584 6585 1
6584 6587 1
6584 7155 1
6584 7198 1
6584 7199 1
6584 7202 1
6585 6586 1
6585 6587 1
6585 6588 1
6586 6587 1
6586 6588 1
6586 6589 1
6586 6591 1
6586 6651 1
6586 6654 1
6586 6655 1
6587 6588 1
6587 6650 1
6587 6651 1
6587 6654 1
6587 7199 1
6587 7202 1
6587 7203 1
6587 7268 1
6588 6589 1
6588 6591 1
6588 7159 1
6588 7202 1
6588 7203 1
6588 7206 1
6589 6590 1
6589 6591 1
6589 6592 1
6590 6591 1
6590 6592 1
6590 6593 1
6590 6595 1
6590 6655 1
6590 6658 1
6590 6659 1
6591 6592 1
6591 6654 1
6591 6655 1
6591 6658 1
6591 7203 1
6591 7206 1
6591 7207 1
6591 7272 1
6592 6593 1
6592 6595 1
6592 7163 1
6592 7206 1
6592 7207 1
6592 7210 1
6593 6594 1
6593 6595 1
6593 6596 1
6594 6595 1
6594 6596 1
6594 6597 1
6594 6599 1
6594 6659 1
6594 6662 1
6594 6663 1
6595 6596 1
6595 6658 1
6595 6659 1
6595 6662 1
6595 7207 1
6595 7210 1
6595 7211 1
6595 7276 1
6596 6597 1
6596 6599 1
6596 7166 1
6596 7210 1
6596 7211 1
6596 7214 1
6597 6598 1
6597 6599 1
6597 6600 1
6598 6599 1
6598 6600 1
6598 6601 1
6598 6603 1
6598 6663 1
6598 6666 1
6598 6667 1
6599 6600 1
6599 6662 1
6599 6663 1
6599 6666 1
6599 7211 1
6599 7214 1
6599 7215 1
6599 7280 1
6600 6601 1
6600 6603 1
6600 7214 1
6600 7215 1
6600 7218 1
6601 6602 1
6601 6603 1
6602 6603 1
6602 6605 1
6602 6667 1
6602 6670 1
6602 6671 1
6603 6666 1
6603 6667 1
6603 6670 1
6603 7215 1
6603 7218 1
6603 7219 1
6603 7284 1
6604 6605 1
6604 6607 1
6604 6671 1
6604 6674 1
6604 6675 1
6605 6670 1
6605 6671 1
6605 6674 1
6605 7219 1
6605 7221 1
6605 7288 1
6606 6607 1
6606 6609 1
6606 6675 1
6606 6678 1
6606 6679 1
6607 6674 1
6607 6675 1
6607 6678 1
6607 7221 1
6607 7223 1
6607 7292 1
6608 6609 1
6608 6610 1
6608 6611 1
6608 6613 1
6608 6679 1
6608 6682 1
6608 6683 1
6609 6610 1
6609 6678 1
6609 6679 1
6609 6682 1
6609 7223 1
6609 7225 1
6609 7296 1
6610 6611 1
6610 6613 1
6610 7225 1
6610 7228 1
6611 6612 1
6611 6613 1
6611 6614 1
6612 6613 1
6612 6614 1
6612 6615 1
6612 6617 1
6612 6683 1
6612 6686 1
6612 6687 1
6613 6614 1
6613 6682 1
6613 6683 1
6613 6686 1
6613 7225 1
6613 7228 1
6613 7229 1
6613 7300 1
6614 6615 1
6614 6617 1
6614 7228 1
6614 7229 1
6614 7232 1
6615 6616 1
6615 6617 1
6615 6618 1
6616 6617 1
6616 6618 1
6616 6619 1
6616 6621 1
6616 6687 1
6616 6690 1
6616 6691 1
6617 6618 1
6617 6686 1
6617 6687 1
6617 6690 1
6617 7229 1
6617 7232 1
6617 7233 1
6617 7304 1
6618 6619 1
6618 6621 1
6618 7168 1
6618 7232 1
6618 7233 1
6618 7236 1
6619 6620 1
6619 6621 1
6619 6622 1
6620 6621 1
6620 6622 1
6620 6623 1
6620 6625 1
6620 6691 1
6620 6694 1
6620 6695 1
6621 6622 1
6621 6690 1
6621 6691 1
6621 6694 1
6621 7233 1
6621 7236 1
6621 7237 1
6621 7308 1
6622 6623 1
6622 6625 1
6622 7171 1
6622 7236 1
6622 7237 1
6622 7240 1
6623 6624 1
6623 6625 1
6623 6626 1
6624 6625 1
6624 6626 1
6624 6627 1
6624 6629 1
6624 6695 1
6624 6698 1
6624 6699 1
6625 6626 1
6625 6694 1
6625 6695 1
6625 6698 1
6625 7237 1
6625 7240 1
6625 7241 1
6625 7312 1
6626 6627 1
6626 6629 1
6626 7175 1
6626 7240 1
6626 7241 1
6626 7244 1
6627 6628 1
6627 6629 1
6627 6630 1
6628 6629 1
6628 6630 1
6628 6631 1
6628 6633 1
6628 6699 1
6628 6702 1
6628 6703 1
6629 6630 1
6629 6698 1
6629 6699 1
6629 6702 1
6629 7241 1
6629 7244 1
6629 7245 1
6629 7316 1
6630 6631 1
6630 6633 1
6630 7179 1
6630 7244 1
6630 7245 1
6630 7248 1
6631 6632 1
6631 6633 1
6631 6634 1
6632 6633 1
6632 6634 1
6632 6635 1
6632 6637 1
6632 6703 1
6632 6706 1
6632 6707 1
6633 6634 1
6633 6702 1
6633 6703 1
6633 6706 1
6633 7245 1
6633 7248 1
6633 7249 1
6633 7320 1
6634 6635 1
6634 6637 1
6634 7183 1
6634 7248 1
6634 7249 1
6634 7252 1
6635 6636 1
6635 6637 1
6635 6638 1
6636 6637 1
6636 6638 1
6636 6707 1
6636 6710 1
6637 6638 1
6637 6706 1
6637 6707 1
6637 6710 1
6637 7249 1
6637 7252 1
6637 7253 1
6637 7324 1
6638 7187 1
6638 7252 1
6638 7253 1
6639 6640 1
6639 6641 1
6639 6642 1
6640 6641 1
6640 6642 1
6640 6643 1
6640 6645 1
6641 6642 1
6641 7256 1
6641 7257 1
6642 6643 1
6642 6645 1
6642 7191 1
6642 7256 1
6642 7257 1
6642 7260 1
6643 6644 1
6643 6645 1
6643 6646 1
6644 6645 1
6644 6646 1
6644 6647 1
6644 6649 1
6645 6646 1
6645 7257 1
6645 7260 1
6645 7261 1
6646 6647 1
6646 6649 1
6646 7195 1
6646 7260 1
6646 7261 1
6646 7264 1
6647 6648 1
6647 6649 1
6647 6650 1
6648 6649 1
6648 6650 1
6648 6651 1
6648 6653 1
6649 6650 1
6649 7261 1
6649 7264 1
6649 7265 1
6650 6651 1
6650 6653 1
6650 7199 1
6650 7264 1
6650 7265 1
6650 7268 1
6651 6652 1
6651 6653 1
6651 6654 1
6652 6653 1
6652 6654 1
6652 6655 1
6652 6657 1
6653 6654 1
6653 7265 1
6653 7268 1
6653 7269 1
6654 6655 1
6654 6657 1
6654 7203 1
6654 7268 1
6654 7269 1
6654 7272 1
6655 6656 1
6655 6657 1
6655 6658 1
6656 6657 1
6656 6658 1
6656 6659 1
6656 6661 1
6657 6658 1
6657 7269 1
6657 7272 1
6657 7273 1
6658 6659 1
6658 6661 1
6658 7207 1
6658 7272 1
6658 7273 1
6658 7276 1
6659 6660 1
6659 6661 1
6659 6662 1
6660 6661 1
6660 6662 1
6660 6663 1
6660 6665 1
6661 6662 1
6661 7273 1
6661 7276 1
6661 7277 1
6662 6663 1
6662 6665 1
6662 7211 1
6662 7276 1
6662 7277 1
6662 7280 1
6663 6664 1
6663 6665 1
6663 6666 1
6664 6665 1
6664 6666 1
6664 6667 1
6664 6669 1
6665 6666 1
6665 7277 1
6665 7280 1
6665 7281 1
6666 6667 1
6666 6669 1
6666 7215 1
6666 7280 1
6666 7281 1
6666 7284 1
6667 6668 1
6667 6669 1
6667 6670 1
6668 6669 1
6668 6670 1
6668 6671 1
6668 6673 1
6669 6670 1
6669 7281 1
6669 7284 1
6669 7285 1
6670 6671 1
6670 6673 1
6670 7219 1
6670 7284 1
6670 7285 1
6670 7288 1
6671 6672 1
6671 6673 1
6671 6674 1
6672 6673 1
6672 6674 1
6672 6675 1
6672 6677 1
6673 6674 1
6673 7285 1
6673 7288 1
6673 7289 1
6674 6675 1
6674 6677 1
6674 7221 1
6674 7288 1
6674 7289 1
6674 7292 1
6675 6676 1
6675 6677 1
6675 6678 1
6676 6677 1
6676 6678 1
6676 6679 1
6676 6681 1
6677 6678 1
6677 7289 1
6677 7292 1
6677 7293 1
6678 6679 1
6678 6681 1
6678 7223 1
6678 7292 1
6678 7293 1
6678 7296 1
6679 6680 1
6679 6681 1
6679 6682 1
6680 6681 1
6680 6682 1
6680 6683 1
6680 6685 1
6681 6682 1
6681 7293 1
6681 7296 1
6681 7297 1
6682 6683 1
6682 6685 1
6682 7225 1
6682 7296 1
6682 7297 1
6682 7300 1
6683 6684 1
6683 6685 1
6683 6686 1
6684 6685 1
6684 6686 1
6684 6687 1
6684 6689 1
6685 6686 1
6685 7297 1
6685 7300 1
6685 7301 1
6686 6687 1
6686 6689 1
6686 7229 1
6686 7300 1
6686 7301 1
6686 7304 1
6687 6688 1
6687 6689 1
6687 6690 1
6688 6689 1
6688 6690 1
6688 6691 1
6688 6693 1
6689 6690 1
6689 7301 1
6689 7304 1
6689 7305 1
6690 6691 1
6690 6693 1
6690 7233 1
6690 7304 1
6690 7305 1
6690 7308 1
6691 6692 1
6691 6693 1
6691 6694 1
6692 6693 1
6692 6694 1
6692 6695 1
6692 6697 1
6693 6694 1
6693 7305 1
6693 7308 1
6693 7309 1
6694 6695 1
6694 6697 1
6694 7237 1
6694 7308 1
6694 7309 1
6694 7312 1
6695 6696 1
6695 6697 1
6695 6698 1
6696 6697 1
6696 6698 1
6696 6699 1
6696 6701 1
6697 6698 1
6697 7309 1
6697 7312 1
6697 7313 1
6698 6699 1
6698 6701 1
6698 7241 1
6698 7312 1
6698 7313 1
6698 7316 1
6699 6700 1
6699 6701 1
6699 6702 1
6700 6701 1
6700 6702 1
6700 6703 1
6700 6705 1
6701 6702 1
6701 7313 1
6701 7316 1
6701 7317 1
6702 6703 1
6702 6705 1
6702 7245 1
6702 7316 1
6702 7317 1
6702 7320 1
6703 6704 1
6703 6705 1
6703 6706 1
6704 6705 1
6704 6706 1
6704 6707 1
6704 6709 1
6705 6706 1
6705 7317 1
6705 7320 1
6705 7321 1
6706 6707 1
6706 6709 1
6706 7249 1
6706 7320 1
6706 7321 1
6706 7324 1
6707 6708 1
6707 6709 1
6707 6710 1
6708 6709 1
6708 6710 1
6709 6710 1
6709 7321 1
6709 7324 1
6709 7325 1
6710 7253 1
6710 7324 1
6710 7325 1
6711 6712 1
6711 6713 1
6711 6714 1
6712 6713 1
6712 6714 1
6712 6715 1
6712 6717 1
6712 6783 1
6712 6786 1
6712 6787 1
6713 6714 1
6713 6783 1
6713 6786 1
6713 7328 1
6713 7329 1
6713 7400 1
6714 6715 1
6714 6717 1
6714 7328 1
6714 7329 1
6714 7332 1
6715 6716 1
6715 6717 1
6715 6718 1
6716 6717 1
6716 6718 1
6716 6719 1
6716 6721 1
6716 6787 1
6716 6790 1
6716 6791 1
6717 6718 1
6717 6786 1
6717 6787 1
6717 6790 1
6717 7329 1
6717 7332 1
6717 7333 1
6717 7404 1
6718 6719 1
6718 6721 1
6718 7332 1
6718 7333 1
6718 7336 1
6719 6720 1
6719 6721 1
6719 6722 1
6720 6721 1
6720 6722 1
6720 6723 1
6720 6725 1
6720 6791 1
6720 6794 1
6720 6795 1
6721 6722 1
6721 6790 1
6721 6791 1
6721 6794 1
6721 7333 1
6721 7336 1
6721 7337 1
6721 7408 1
6722 6723 1
6722 6725 1
6722 7336 1
6722 7337 1
6722 7340 1
6723 6724 1
6723 6725 1
6723 6726 1
6724 6725 1
6724 6726 1
6724 6727 1
6724 6729 1
6724 6795 1
6724 6798 1
6724 6799 1
6725 6726 1
6725 6794 1
6725 6795 1
6725 6798 1
6725 7337 1
6725 7340 1
6725 7341 1
6725 7412 1
6726 6727 1
6726 6729 1
6726 7340 1
6726 7341 1
6726 7344 1
6727 6728 1
6727 6729 1
6727 6730 1
6728 6729 1
6728 6730 1
6728 6731 1
6728 6733 1
6728 6799 1
6728 6802 1
6728 6803 1
6729 6730 1
6729 6798 1
6729 6799 1
6729 6802 1
6729 7341 1
6729 7344 1
6729 7345 1
6729 7416 1
6730 6731 1
6730 6733 1
6730 7344 1
6730 7345 1
6730 7348 1
6731 6732 1
6731 6733 1
6731 6734 1
6732 6733 1
6732 6734 1
6732 6735 1
6732 6737 1
6732 6803 1
6732 6806 1
6732 6807 1
6733 6734 1
6733 6802 1
6733 6803 1
6733 6806 1
6733 7345 1
6733 7348 1
6733 7349 1
6733 7420 1
6734 6735 1
6734 6737 1
6734 7348 1
6734 7349 1
6734 7352 1
6735 6736 1
6735 6737 1
6735 6738 1
6736 6737 1
6736 6738 1
6736 6739 1
6736 6741 1
6736 6807 1
6736 6810 1
6736 6811 1
6737 6738 1
6737 6806 1
6737 6807 1
6737 6810 1
6737 7349 1
6737 7352 1
6737 7353 1
6737 7424 1
6738 6739 1
6738 6741 1
6738 7352 1
6738 7353 1
6738 7356 1
6739 6740 1
6739 6741 1
6739 6742 1
6740 6741 1
6740 6742 1
6740 6743 1
6740 6745 1
6740 6811 1
6740 6814 1
6740 6815 1
6741 6742 1
6741 6810 1
6741 6811 1
6741 6814 1
6741 7353 1
6741 7356 1
6741 7357 1
6741 7428 1
6742 6743 1
6742 6745 1
6742 7356 1
6742 7357 1
6742 7360 1
6743 6744 1
6743 6745 1
6743 6746 1
6744 6745 1
6744 6746 1
6744 6747 1
6744 6749 1
6744 6815 1
6744 6817 1
6744 6818 1
6745 6746 1
6745 6814 1
6745 6815 1
6745 6817 1
6745 7357 1
6745 7360 1
6745 7361 1
6745 7432 1
6746 6747 1
6746 6749 1
6746 7360 1
6746 7361 1
6746 7364 1
6747 6748 1
6747 6749 1
6747 6750 1
6748 6749 1
6748 6750 1
6748 6751 1
6748 6753 1
6748 6818 1
6748 6819 1
6748 6820 1
6749 6750 1
6749 6817 1
6749 6818 1
6749 6819 1
6749 7361 1
6749 7364 1
6749 7365 1
6749 7435 1
6750 6751 1
6750 6753 1
6750 7364 1
6750 7365 1
6750 7368 1
6751 6752 1
6751 6753 1
6751 6754 1
6752 6753 1
6752 6754 1
6752 6755 1
6752 6757 1
6752 6820 1
6752 6823 1
6752 6824 1
6753 6754 1
6753 6819 1
6753 6820 1
6753 6823 1
6753 7365 1
6753 7368 1
6753 7369 1
6753 7437 1
6754 6755 1
6754 6757 1
6754 7368 1
6754 7369 1
6754 7372 1
6755 6756 1
6755 6757 1
6755 6758 1
6756 6757 1
6756 6758 1
6756 6759 1
6756 6761 1
6756 6824 1
6756 6827 1
6756 6828 1
6757 6758 1
6757 6823 1
6757 6824 1
6757 6827 1
6757 7369 1
6757 7372 1
6757 7373 1
6757 7441 1
6758 6759 1
6758 6761 1
6758 7372 1
6758 7373 1
6758 7376 1
6759 6760 1
6759 6761 1
6759 6762 1
6760 6761 1
6760 6762 1
6760 6763 1
6760 6765 1
6760 6828 1
6760 6831 1
6760 6832 1
6761 6762 1
6761 6827 1
6761 6828 1
6761 6831 1
6761 7373 1
6761 7376 1
6761 7377 1
6761 7445 1
6762 6763 1
6762 6765 1
6762 7376 1
6762 7377 1
6762 7380 1
6763 6764 1
6763 6765 1
6763 6766 1
6764 6765 1
6764 6766 1
6764 6767 1
6764 6769 1
6764 6832 1
6764 6835 1
6764 6836 1
6765 6766 1
6765 6831 1
6765 6832 1
6765 6835 1
6765 7377 1
6765 7380 1
6765 7381 1
6765 7449 1
6766 6767 1
6766 6769 1
6766 7380 1
6766 7381 1
6766 7384 1
6767 6768 1
6767 6769 1
6767 6770 1
6768 6769 1
6768 6770 1
6768 6771 1
6768 6773 1
6768 6836 1
6768 6839 1
6768 6840 1
6769 6770 1
6769 6835 1
6769 6836 1
6769 6839 1
6769 7381 1
6769 7384 1
6769 7385 1
6769 7453 1
6770 6771 1
6770 6773 1
6770 7384 1
6770 7385 1
6770 7388 1
6771 6772 1
6771 6773 1
6771 6774 1
6772 6773 1
6772 6774 1
6772 6775 1
6772 6777 1
6772 6840 1
6772 6843 1
6772 6844 1
6773 6774 1
6773 6839 1
6773 6840 1
6773 6843 1
6773 7385 1
6773 7388 1
6773 7389 1
6773 7457 1
6774 6775 1
6774 6777 1
6774 7388 1
6774 7389 1
6774 7392 1
6775 6776 1
6775 6777 1
6775 6778 1
6776 6777 1
6776 6778 1
6776 6779 1
6776 6781 1
6776 6844 1
6776 6847 1
6776 6848 1
6777 6778 1
6777 6843 1
6777 6844 1
6777 6847 1
6777 7389 1
6777 7392 1
6777 7393 1
6777 7461 1
6778 6779 1
6778 6781 1
6778 7392 1
6778 7393 1
6778 7396 1
6779 6780 1
6779 6781 1
6779 6782 1
6780 6781 1
6780 6782 1
6780 6848 1
6780 6851 1
6781 6782 1
6781 6847 1
6781 6848 1
6781 6851 1
6781 7393 1
6781 7396 1
6781 7397 1
6781 7465 1
6782 7396 1
6782 7397 1
6783 6784 1
6783 6785 1
6783 6786 1
6784 6785 1
6784 6786 1
6784 6787 1
6784 6789 1
6784 6852 1
6784 6855 1
6784 6856 1
6785 6786 1
6785 6852 1
6785 6855 1
6785 7400 1
6785 7401 1
6785 7469 1
6786 6787 1
6786 6789 1
6786 7329 1
6786 7400 1
6786 7401 1
6786 7404 1
6787 6788 1
6787 6789 1
6787 6790 1
6788 6789 1
6788 6790 1
6788 6791 1
6788 6793 1
6788 6856 1
6788 6859 1
6788 6860 1
6789 6790 1
6789 6855 1
6789 6856 1
6789 6859 1
6789 7401 1
6789 7404 1
6789 7405 1
6789 7473 1
6790 6791 1
6790 6793 1
6790 7333 1
6790 7404 1
6790 7405 1
6790 7408 1
6791 6792 1
6791 6793 1
6791 6794 1
6792 6793 1
6792 6794 1
6792 6795 1
6792 6797 1
6792 6860 1
6792 6863 1
6792 6864 1
6793 6794 1
6793 6859 1
6793 6860 1
6793 6863 1
6793 7405 1
6793 7408 1
6793 7409 1
6793 7477 1
6794 6795 1
6794 6797 1
6794 7337 1
6794 7408 1
6794 7409 1
6794 7412 1
6795 6796 1
6795 6797 1
6795 6798 1
6796 6797 1
6796 6798 1
6796 6799 1
6796 6801 1
6796 6864 1
6796 6867 1
6796 6868 1
6797 6798 1
6797 6863 1
6797 6864 1
6797 6867 1
6797 7409 1
6797 7412 1
6797 7413 1
6797 7481 1
6798 6799 1
6798 6801 1
6798 7341 1
6798 7412 1
6798 7413 1
6798 7416 1
6799 6800 1
6799 6801 1
6799 6802 1
6800 6801 1
6800 6802 1
6800 6803 1
6800 6805 1
6800 6868 1
6800 6871 1
6800 6872 1
6801 6802 1
6801 6867 1
6801 6868 1
6801 6871 1
6801 7413 1
6801 7416 1
6801 7417 1
6801 7485 1
6802 6803 1
6802 6805 1
6802 7345 1
6802 7416 1
6802 7417 1
6802 7420 1
6803 6804 1
6803 6805 1
6803 6806 1
6804 6805 1
6804 6806 1
6804 6807 1
6804 6809 1
6804 6872 1
6804 6874 1
6804 6875 1
6805 6806 1
6805 6871 1
6805 6872 1
6805 6874 1
6805 7417 1
6805 7420 1
6805 7421 1
6805 7489 1
6806 6807 1
6806 6809 1
6806 7349 1
6806 7420 1
6806 7421 1
6806 7424 1
6807 6808 1
6807 6809 1
6807 6810 1
6808 6809 1
6808 6810 1
6808 6811 1
6808 6813 1
6808 6875 1
6809 6810 1
6809 6874 1
6809 6875 1
6809 7421 1
6809 7424 1
6809 7425 1
6809 7492 1
6810 6811 1
6810 6813 1
6810 7353 1
6810 7424 1
6810 7425 1
6810 7428 1
6811 6812 1
6811 6813 1
6811 6814 1
6812 6813 1
6812 6814 1
6812 6815 1
6812 6816 1
6813 6814 1
6813 7425 1
6813 7428 1
6813 7429 1
6814 6815 1
6814 6816 1
6814 7357 1
6814 7428 1
6814 7429 1
6814 7432 1
6815 6816 1
6815 6817 1
6816 6817 1
6816 7429 1
6816 7432 1
6817 6818 1
6817 7361 1
6817 7432 1
6817 7435 1
6818 6819 1
6819 6820 1
6819 6822 1
6819 7365 1
6819 7435 1
6819 7437 1
6820 6821 1
6820 6822 1
6820 6823 1
6821 6822 1
6821 6823 1
6821 6824 1
6821 6826 1
6822 6823 1
6822 7437 1
6822 7438 1
6823 6824 1
6823 6826 1
6823 7369 1
6823 7437 1
6823 7438 1
6823 7441 1
6824 6825 1
6824 6826 1
6824 6827 1
6825 6826 1
6825 6827 1
6825 6828 1
6825 6830 1
6825 6876 1
6826 6827 1
6826 7438 1
6826 7441 1
6826 7442 1
6827 6828 1
6827 6830 1
6827 7373 1
6827 7441 1
6827 7442 1
6827 7445 1
6828 6829 1
6828 6830 1
6828 6831 1
6829 6830 1
6829 6831 1
6829 6832 1
6829 6834 1
6829 6876 1
6829 6877 1
6829 6878 1
6830 6831 1
6830 6876 1
6830 6877 1
6830 7442 1
6830 7445 1
6830 7446 1
6830 7493 1
6831 6832 1
6831 6834 1
6831 7377 1
6831 7445 1
6831 7446 1
6831 7449 1
6832 6833 1
6832 6834 1
6832 6835 1
6833 6834 1
6833 6835 1
6833 6836 1
6833 6838 1
6833 6878 1
6833 6881 1
6833 6882 1
6834 6835 1
6834 6877 1
6834 6878 1
6834 6881 1
6834 7446 1
6834 7449 1
6834 7450 1
6834 7495 1
6835 6836 1
6835 6838 1
6835 7381 1
6835 7449 1
6835 7450 1
6835 7453 1
6836 6837 1
6836 6838 1
6836 6839 1
6837 6838 1
6837 6839 1
6837 6840 1
6837 6842 1
6837 6882 1
6837 6885 1
6837 6886 1
6838 6839 1
6838 6881 1
6838 6882 1
6838 6885 1
6838 7450 1
6838 7453 1
6838 7454 1
6838 7499 1
6839 6840 1
6839 6842 1
6839 7385 1
6839 7453 1
6839 7454 1
6839 7457 1
6840 6841 1
6840 6842 1
6840 6843 1
6841 6842 1
6841 6843 1
6841 6844 1
6841 6846 1
6841 6886 1
6841 6889 1
6841 6890 1
6842 6843 1
6842 6885 1
6842 6886 1
6842 6889 1
6842 7454 1
6842 7457 1
6842 7458 1
6842 7503 1
6843 6844 1
6843 6846 1
6843 7389 1
6843 7457 1
6843 7458 1
6843 7461 1
6844 6845 1
6844 6846 1
6844 6847 1
6845 6846 1
6845 6847 1
6845 6848 1
6845 6850 1
6845 6890 1
6845 6893 1
6845 6894 1
6846 6847 1
6846 6889 1
6846 6890 1
6846 6893 1
6846 7458 1
6846 7461 1
6846 7462 1
6846 7507 1
6847 6848 1
6847 6850 1
6847 7393 1
6847 7461 1
6847 7462 1
6847 7465 1
6848 6849 1
6848 6850 1
6848 6851 1
6849 6850 1
6849 6851 1
6849 6894 1
6849 6897 1
6850 6851 1
6850 6893 1
6850 6894 1
6850 6897 1
6850 7462 1
6850 7465 1
6850 7466 1
6850 7511 1
6851 7397 1
6851 7465 1
6851 7466 1
6852 6853 1
6852 6854 1
6852 6855 1
6853 6854 1
6853 6855 1
6853 6856 1
6853 6858 1
6853 6898 1
6853 6901 1
6853 6902 1
6854 6855 1
6854 6898 1
6854 6901 1
6854 7469 1
6854 7470 1
6854 7515 1
6855 6856 1
6855 6858 1
6855 7401 1
6855 7469 1
6855 7470 1
6855 7473 1
6856 6857 1
6856 6858 1
6856 6859 1
6857 6858 1
6857 6859 1
6857 6860 1
6857 6862 1
6857 6902 1
6857 6905 1
6857 6906 1
6858 6859 1
6858 6901 1
6858 6902 1
6858 6905 1
6858 7470 1
6858 7473 1
6858 7474 1
6858 7519 1
6859 6860 1
6859 6862 1
6859 7405 1
6859 7473 1
6859 7474 1
6859 7477 1
6860 6861 1
6860 6862 1
6860 6863 1
6861 6862 1
6861 6863 1
6861 6864 1
6861 6866 1
6861 6906 1
6861 6909 1
6861 6910 1
6862 6863 1
6862 6905 1
6862 6906 1
6862 6909 1
6862 7474 1
6862 7477 1
6862 7478 1
6862 7523 1
6863 6864 1
6863 6866 1
6863 7409 1
6863 7477 1
6863 7478 1
6863 7481 1
6864 6865 1
6864 6866 1
6864 6867 1
6865 6866 1
6865 6867 1
6865 6868 1
6865 6870 1
6865 6910 1
6865 6913 1
6865 6914 1
6866 6867 1
6866 6909 1
6866 6910 1
6866 6913 1
6866 7478 1
6866 7481 1
6866 7482 1
6866 7527 1
6867 6868 1
6867 6870 1
6867 7413 1
6867 7481 1
6867 7482 1
6867 7485 1
6868 6869 1
6868 6870 1
6868 6871 1
6869 6870 1
6869 6871 1
6869 6872 1
6869 6873 1
6869 6914 1
6870 6871 1
6870 6913 1
6870 6914 1
6870 7482 1
6870 7485 1
6870 7486 1
6870 7531 1
6871 6872 1
6871 6873 1
6871 7417 1
6871 7485 1
6871 7486 1
6871 7489 1
6872 6873 1
6872 6874 1
6873 6874 1
6873 7486 1
6873 7489 1
6874 6875 1
6874 7421 1
6874 7489 1
6874 7492 1
6876 6877 1
6877 6878 1
6877 6880 1
6877 7446 1
6877 7493 1
6877 7495 1
6878 6879 1
6878 6880 1
6878 6881 1
6879 6880 1
6879 6881 1
6879 6882 1
6879 6884 1
6879 6915 1
6879 6916 1
6880 6881 1
6880 6915 1
6880 7495 1
6880 7496 1
6881 6882 1
6881 6884 1
6881 7450 1
6881 7495 1
6881 7496 1
6881 7499 1
6882 6883 1
6882 6884 1
6882 6885 1
6883 6884 1
6883 6885 1
6883 6886 1
6883 6888 1
6883 6916 1
6883 6919 1
6883 6920 1
6884 6885 1
6884 6915 1
6884 6916 1
6884 6919 1
6884 7496 1
6884 7499 1
6884 7500 1
6884 7533 1
6885 6886 1
6885 6888 1
6885 7454 1
6885 7499 1
6885 7500 1
6885 7503 1
6886 6887 1
6886 6888 1
6886 6889 1
6887 6888 1
6887 6889 1
6887 6890 1
6887 6892 1
6887 6920 1
6887 6923 1
6887 6924 1
6888 6889 1
6888 6919 1
6888 6920 1
6888 6923 1
6888 7500 1
6888 7503 1
6888 7504 1
6888 7537 1
6889 6890 1
6889 6892 1
6889 7458 1
6889 7503 1
6889 7504 1
6889 7507 1
6890 6891 1
6890 6892 1
6890 6893 1
6891 6892 1
6891 6893 1
6891 6894 1
6891 6896 1
6891 6924 1
6891 6927 1
6891 6928 1
6892 6893 1
6892 6923 1
6892 6924 1
6892 6927 1
6892 7504 1
6892 7507 1
6892 7508 1
6892 7541 1
6893 6894 1
6893 6896 1
6893 7462 1
6893 7507 1
6893 7508 1
6893 7511 1
6894 6895 1
6894 6896 1
6894 6897 1
6895 6896 1
6895 6897 1
6895 6928 1
6895 6931 1
6896 6897 1
6896 6927 1
6896 6928 1
6896 6931 1
6896 7508 1
6896 7511 1
6896 7512 1
6896 7545 1
6897 7466 1
6897 7511 1
6897 7512 1
6898 6899 1
6898 6900 1
6898 6901 1
6899 6900 1
6899 6901 1
6899 6902 1
6899 6904 1
6899 6932 1
6899 6935 1
6899 6936 1
6900 6901 1
6900 6932 1
6900 6935 1
6900 7515 1
6900 7516 1
6900 7549 1
6901 6902 1
6901 6904 1
6901 7470 1
6901 7515 1
6901 7516 1
6901 7519 1
6902 6903 1
6902 6904 1
6902 6905 1
6903 6904 1
6903 6905 1
6903 6906 1
6903 6908 1
6903 6936 1
6903 6939 1
6903 6940 1
6904 6905 1
6904 6935 1
6904 6936 1
6904 6939 1
6904 7516 1
6904 7519 1
6904 7520 1
6904 7553 1
6905 6906 1
6905 6908 1
6905 7474 1
6905 7519 1
6905 7520 1
6905 7523 1
6906 6907 1
6906 6908 1
6906 6909 1
6907 6908 1
6907 6909 1
6907 6910 1
6907 6912 1
6907 6940 1
6907 6943 1
6907 6944 1
6908 6909 1
6908 6939 1
6908 6940 1
6908 6943 1
6908 7520 1
6908 7523 1
6908 7524 1
6908 7557 1
6909 6910 1
6909 6912 1
6909 7478 1
6909 7523 1
6909 7524 1
6909 7527 1
6910 6911 1
6910 6912 1
6910 6913 1
6911 6912 1
6911 6913 1
6911 6914 1
6911 6944 1
6912 6913 1
6912 6943 1
6912 6944 1
6912 7524 1
6912 7527 1
6912 7528 1
6912 7561 1
6913 6914 1
6913 7482 1
6913 7527 1
6913 7528 1
6913 7531 1
6915 6916 1
6915 6918 1
6915 7496 1
6915 7533 1
6916 6917 1
6916 6918 1
6916 6919 1
6917 6918 1
6917 6919 1
6917 6920 1
6917 6922 1
6917 6945 1
6917 6946 1
6918 6919 1
6918 6945 1
6918 7533 1
6918 7534 1
6919 6920 1
6919 6922 1
6919 7500 1
6919 7533 1
6919 7534 1
6919 7537 1
6920 6921 1
6920 6922 1
6920 6923 1
6921 6922 1
6921 6923 1
6921 6924 1
6921 6926 1
6921 6946 1
6921 6949 1
6921 6950 1
6922 6923 1
6922 6945 1
6922 6946 1
6922 6949 1
6922 7534 1
6922 7537 1
6922 7538 1
6922 7563 1
6923 6924 1
6923 6926 1
6923 7504 1
6923 7537 1
6923 7538 1
6923 7541 1
6924 6925 1
6924 6926 1
6924 6927 1
6925 6926 1
6925 6927 1
6925 6928 1
6925 6930 1
6925 6950 1
6925 6953 1
6925 6954 1
6926 6927 1
6926 6949 1
6926 6950 1
6926 6953 1
6926 7538 1
6926 7541 1
6926 7542 1
6926 7567 1
6927 6928 1
6927 6930 1
6927 7508 1
6927 7541 1
6927 7542 1
6927 7545 1
6928 6929 1
6928 6930 1
6928 6931 1
6929 6930 1
6929 6931 1
6929 6954 1
6929 6957 1
6930 6931 1
6930 6953 1
6930 6954 1
6930 6957 1
6930 7542 1
6930 7545 1
6930 7546 1
6930 7571 1
6931 7512 1
6931 7545 1
6931 7546 1
6932 6933 1
6932 6934 1
6932 6935 1
6933 6934 1
6933 6935 1
6933 6936 1
6933 6938 1
6933 6958 1
6933 6961 1
6933 6962 1
6934 6935 1
6934 6958 1
6934 6961 1
6934 7549 1
6934 7550 1
6934 7575 1
6935 6936 1
6935 6938 1
6935 7516 1
6935 7549 1
6935 7550 1
6935 7553 1
6936 6937 1
6936 6938 1
6936 6939 1
6937 6938 1
6937 6939 1
6937 6940 1
6937 6942 1
6937 6962 1
6937 6965 1
6937 6966 1
6938 6939 1
6938 6961 1
6938 6962 1
6938 6965 1
6938 7550 1
6938 7553 1
6938 7554 1
6938 7579 1
6939 6940 1
6939 6942 1
6939 7520 1
6939 7553 1
6939 7554 1
6939 7557 1
6940 6941 1
6940 6942 1
6940 6943 1
6941 6942 1
6941 6943 1
6941 6944 1
6941 6966 1
6941 6968 1
6942 6943 1
6942 6965 1
6942 6966 1
6942 6968 1
6942 7554 1
6942 7557 1
6942 7558 1
6942 7583 1
6943 6944 1
6943 7524 1
6943 7557 1
6943 7558 1
6943 7561 1
6945 6946 1
6945 6948 1
6945 7534 1
6945 7563 1
6946 6947 1
6946 6948 1
6946 6949 1
6947 6948 1
6947 6949 1
6947 6950 1
6947 6952 1
6947 6970 1
6947 6971 1
6948 6949 1
6948 6970 1
6948 7563 1
6948 7564 1
6949 6950 1
6949 6952 1
6949 7538 1
6949 7563 1
6949 7564 1
6949 7567 1
6950 6951 1
6950 6952 1
6950 6953 1
6951 6952 1
6951 6953 1
6951 6954 1
6951 6956 1
6951 6971 1
6951 6974 1
6951 6975 1
6952 6953 1
6952 6970 1
6952 6971 1
6952 6974 1
6952 7564 1
6952 7567 1
6952 7568 1
6952 7588 1
6953 6954 1
6953 6956 1
6953 7542 1
6953 7567 1
6953 7568 1
6953 7571 1
6954 6955 1
6954 6956 1
6954 6957 1
6955 6956 1
6955 6957 1
6955 6975 1
6955 6978 1
6956 6957 1
6956 6974 1
6956 6975 1
6956 6978 1
6956 7568 1
6956 7571 1
6956 7572 1
6956 7592 1
6957 7546 1
6957 7571 1
6957 7572 1
6958 6959 1
6958 6960 1
6958 6961 1
6959 6960 1
6959 6961 1
6959 6962 1
6959 6964 1
6959 6979 1
6959 6982 1
6959 6983 1
6960 6961 1
6960 6979 1
6960 6982 1
6960 7575 1
6960 7576 1
6960 7596 1
6961 6962 1
6961 6964 1
6961 7550 1
6961 7575 1
6961 7576 1
6961 7579 1
6962 6963 1
6962 6964 1
6962 6965 1
6963 6964 1
6963 6965 1
6963 6966 1
6963 6967 1
6963 6983 1
6963 6986 1
6963 6987 1
6964 6965 1
6964 6982 1
6964 6983 1
6964 6986 1
6964 7576 1
6964 7579 1
6964 7580 1
6964 7600 1
6965 6966 1
6965 6967 1
6965 7554 1
6965 7579 1
6965 7580 1
6965 7583 1
6966 6967 1
6966 6968 1
6967 6968 1
6967 6986 1
6967 6987 1
6967 7580 1
6967 7583 1
6967 7604 1
6968 7558 1
6968 7583 1
6969 6970 1
6969 6971 1
6969 6973 1
6969 6988 1
6970 6971 1
6970 6973 1
6970 7564 1
6970 7586 1
6970 7588 1
6971 6972 1
6971 6973 1
6971 6974 1
6972 6973 1
6972 6974 1
6972 6975 1
6972 6977 1
6972 6988 1
6972 6991 1
6972 6992 1
6973 6974 1
6973 6988 1
6973 6991 1
6973 7586 1
6973 7588 1
6973 7589 1
6973 7605 1
6974 6975 1
6974 6977 1
6974 7568 1
6974 7588 1
6974 7589 1
6974 7592 1
6975 6976 1
6975 6977 1
6975 6978 1
6976 6977 1
6976 6978 1
6976 6992 1
6976 6995 1
6977 6978 1
6977 6991 1
6977 6992 1
6977 6995 1
6977 7589 1
6977 7592 1
6977 7593 1
6977 7609 1
6978 7572 1
6978 7592 1
6978 7593 1
6979 6980 1
6979 6981 1
6979 6982 1
6980 6981 1
6980 6982 1
6980 6983 1
6980 6985 1
6980 6996 1
6980 6999 1
6980 7000 1
6981 6982 1
6981 6996 1
6981 6999 1
6981 7596 1
6981 7597 1
6981 7613 1
6982 6983 1
6982 6985 1
6982 7576 1
6982 7596 1
6982 7597 1
6982 7600 1
6983 6984 1
6983 6985 1
6983 6986 1
6984 6985 1
6984 6986 1
6984 6987 1
6984 7000 1
6984 7003 1
6985 6986 1
6985 6999 1
6985 7000 1
6985 7003 1
6985 7597 1
6985 7600 1
6985 7601 1
6985 7617 1
6986 6987 1
6986 7580 1
6986 7600 1
6986 7601 1
6986 7604 1
6988 6989 1
6988 6990 1
6988 6991 1
6989 6990 1
6989 6991 1
6989 6992 1
6989 6994 1
6989 7004 1
6989 7006 1
6989 7007 1
6990 6991 1
6990 7004 1
6990 7006 1
6990 7605 1
6990 7606 1
6990 7621 1
6991 6992 1
6991 6994 1
6991 7589 1
6991 7605 1
6991 7606 1
6991 7609 1
6992 6993 1
6992 6994 1
6992 6995 1
6993 6994 1
6993 6995 1
6993 7007 1
6993 7010 1
6994 6995 1
6994 7006 1
6994 7007 1
6994 7010 1
6994 7606 1
6994 7609 1
6994 7610 1
6994 7624 1
6995 7593 1
6995 7609 1
6995 7610 1
6996 6997 1
6996 6998 1
6996 6999 1
6997 6998 1
6997 6999 1
6997 7000 1
6997 7002 1
6997 7011 1
6997 7014 1
6997 7015 1
6998 6999 1
6998 7011 1
6998 7014 1
6998 7613 1
6998 7614 1
6998 7628 1
6999 7000 1
6999 7002 1
6999 7597 1
6999 7613 1
6999 7614 1
6999 7617 1
7000 7001 1
7000 7002 1
7000 7003 1
7001 7002 1
7001 7003 1
7001 7015 1
7001 7017 1
7002 7003 1
7002 7014 1
7002 7015 1
7002 7017 1
7002 7614 1
7002 7617 1
7002 7618 1
7002 7632 1
7003 7601 1
7003 7617 1
7003 7618 1
7004 7005 1
7004 7006 1
7005 7006 1
7005 7007 1
7005 7009 1
7005 7019 1
7005 7020 1
7006 7007 1
7006 7009 1
7006 7606 1
7006 7621 1
7006 7622 1
7006 7624 1
7007 7008 1
7007 7009 1
7007 7010 1
7008 7009 1
7008 7010 1
7008 7020 1
7008 7023 1
7009 7010 1
7009 7019 1
7009 7020 1
7009 7023 1
7009 7622 1
7009 7624 1
7009 7625 1
7009 7637 1
7010 7610 1
7010 7624 1
7010 7625 1
7011 7012 1
7011 7013 1
7011 7014 1
7012 7013 1
7012 7014 1
7012 7015 1
7012 7016 1
7012 7024 1
7012 7027 1
7012 7028 1
7013 7014 1
7013 7024 1
7013 7027 1
7013 7628 1
7013 7629 1
7013 7641 1
7014 7015 1
7014 7016 1
7014 7614 1
7014 7628 1
7014 7629 1
7014 7632 1
7015 7016 1
7015 7017 1
7016 7017 1
7016 7027 1
7016 7028 1
7016 7629 1
7016 7632 1
7016 7645 1
7017 7618 1
7017 7632 1
7018 7019 1
7018 7020 1
7018 7022 1
7018 7031 1
7018 7032 1
7019 7020 1
7019 7022 1
7019 7622 1
7019 7635 1
7019 7637 1
7020 7021 1
7020 7022 1
7020 7023 1
7021 7022 1
7021 7023 1
7021 7032 1
7021 7035 1
7022 7023 1
7022 7031 1
7022 7032 1
7022 7035 1
7022 7635 1
7022 7637 1
7022 7638 1
7022 7649 1
7023 7625 1
7023 7637 1
7023 7638 1
7024 7025 1
7024 7026 1
7024 7027 1
7025 7026 1
7025 7027 1
7025 7028 1
7025 7029 1
7025 7036 1
7025 7039 1
7025 7040 1
7026 7027 1
7026 7036 1
7026 7039 1
7026 7641 1
7026 7642 1
7026 7653 1
7027 7028 1
7027 7029 1
7027 7629 1
7027 7641 1
7027 7642 1
7027 7645 1
7028 7029 1
7029 7039 1
7029 7040 1
7029 7043 1
7029 7642 1
7029 7645 1
7029 7657 1
7030 7031 1
7030 7032 1
7030 7034 1
7030 7046 1
7030 7047 1
7031 7032 1
7031 7034 1
7031 7635 1
7031 7647 1
7031 7649 1
7032 7033 1
7032 7034 1
7032 7035 1
7033 7034 1
7033 7035 1
7033 7047 1
7033 7050 1
7034 7035 1
7034 7046 1
7034 7047 1
7034 7050 1
7034 7647 1
7034 7649 1
7034 7650 1
7034 7664 1
7035 7638 1
7035 7649 1
7035 7650 1
7036 7037 1
7036 7038 1
7036 7039 1
7037 7038 1
7037 7039 1
7037 7040 1
7037 7042 1
7037 7051 1
7037 7054 1
7037 7055 1
7038 7039 1
7038 7051 1
7038 7054 1
7038 7653 1
7038 7654 1
7038 7668 1
7039 7040 1
7039 7042 1
7039 7642 1
7039 7653 1
7039 7654 1
7039 7657 1
7040 7041 1
7040 7042 1
7040 7043 1
7041 7042 1
7041 7043 1
7041 7055 1
7041 7058 1
7042 7043 1
7042 7054 1
7042 7055 1
7042 7058 1
7042 7654 1
7042 7657 1
7042 7658 1
7042 7672 1
7043 7657 1
7043 7658 1
7044 7045 1
7044 7046 1
7044 7047 1
7044 7049 1
7044 7059 1
7044 7062 1
7044 7063 1
7045 7046 1
7045 7059 1
7045 7062 1
7045 7661 1
7045 7676 1
7046 7047 1
7046 7049 1
7046 7647 1
7046 7661 1
7046 7664 1
7047 7048 1
7047 7049 1
7047 7050 1
7048 7049 1
7048 7050 1
7048 7063 1
7048 7066 1
7049 7050 1
7049 7062 1
7049 7063 1
7049 7066 1
7049 7661 1
7049 7664 1
7049 7665 1
7049 7680 1
7050 7650 1
7050 7664 1
7050 7665 1
7051 7052 1
7051 7053 1
7051 7054 1
7052 7053 1
7052 7054 1
7052 7055 1
7052 7057 1
7052 7067 1
7052 7070 1
7052 7071 1
7053 7054 1
7053 7067 1
7053 7070 1
7053 7668 1
7053 7669 1
7053 7684 1
7054 7055 1
7054 7057 1
7054 7654 1
7054 7668 1
7054 7669 1
7054 7672 1
7055 7056 1
7055 7057 1
7055 7058 1
7056 7057 1
7056 7058 1
7056 7071 1
7056 7074 1
7056 7075 1
7057 7058 1
7057 7070 1
7057 7071 1
7057 7074 1
7057 7669 1
7057 7672 1
7057 7673 1
7057 7688 1
7058 7658 1
7058 7672 1
7058 7673 1
7059 7060 1
7059 7061 1
7059 7062 1
7060 7061 1
7060 7062 1
7060 7063 1
7060 7065 1
7060 7079 1
7060 7082 1
7060 7083 1
7061 7062 1
7061 7078 1
7061 7079 1
7061 7082 1
7061 7676 1
7061 7677 1
7061 7696 1
7062 7063 1
7062 7065 1
7062 7661 1
7062 7676 1
7062 7677 1
7062 7680 1
7063 7064 1
7063 7065 1
7063 7066 1
7064 7065 1
7064 7066 1
7064 7083 1
7064 7086 1
7065 7066 1
7065 7082 1
7065 7083 1
7065 7086 1
7065 7677 1
7065 7680 1
7065 7681 1
7065 7700 1
7066 7665 1
7066 7680 1
7066 7681 1
7067 7068 1
7067 7069 1
7067 7070 1
7068 7069 1
7068 7070 1
7068 7071 1
7068 7073 1
7068 7087 1
7068 7090 1
7068 7091 1
7069 7070 1
7069 7087 1
7069 7090 1
7069 7684 1
7069 7685 1
7069 7704 1
7070 7071 1
7070 7073 1
7070 7669 1
7070 7684 1
7070 7685 1
7070 7688 1
7071 7072 1
7071 7073 1
7071 7074 1
7072 7073 1
7072 7074 1
7072 7075 1
7072 7076 1
7072 7091 1
7072 7094 1
7072 7095 1
7073 7074 1
7073 7090 1
7073 7091 1
7073 7094 1
7073 7685 1
7073 7688 1
7073 7689 1
7073 7708 1
7074 7075 1
7074 7076 1
7074 7673 1
7074 7688 1
7074 7689 1
7074 7692 1
7075 7076 1
7076 7094 1
7076 7095 1
7076 7098 1
7076 7689 1
7076 7692 1
7076 7712 1
7077 7078 1
7077 7079 1
7077 7081 1
7077 7101 1
7077 7104 1
7077 7105 1
7078 7079 1
7078 7081 1
7078 7694 1
7078 7696 1
7079 7080 1
7079 7081 1
7079 7082 1
7080 7081 1
7080 7082 1
7080 7083 1
7080 7085 1
7080 7105 1
7080 7108 1
7080 7109 1
7081 7082 1
7081 7104 1
7081 7105 1
7081 7108 1
7081 7694 1
7081 7696 1
7081 7697 1
7081 7722 1
7082 7083 1
7082 7085 1
7082 7677 1
7082 7696 1
7082 7697 1
7082 7700 1
7083 7084 1
7083 7085 1
7083 7086 1
7084 7085 1
7084 7086 1
7084 7109 1
7084 7112 1
7085 7086 1
7085 7108 1
7085 7109 1
7085 7112 1
7085 7697 1
7085 7700 1
7085 7701 1
7085 7726 1
7086 7681 1
7086 7700 1
7086 7701 1
7087 7088 1
7087 7089 1
7087 7090 1
7088 7089 1
7088 7090 1
7088 7091 1
7088 7093 1
7088 7113 1
7088 7116 1
7088 7117 1
7089 7090 1
7089 7113 1
7089 7116 1
7089 7704 1
7089 7705 1
7089 7730 1
7090 7091 1
7090 7093 1
7090 7685 1
7090 7704 1
7090 7705 1
7090 7708 1
7091 7092 1
7091 7093 1
7091 7094 1
7092 7093 1
7092 7094 1
7092 7095 1
7092 7097 1
7092 7117 1
7092 7120 1
7092 7121 1
7093 7094 1
7093 7116 1
7093 7117 1
7093 7120 1
7093 7705 1
7093 7708 1
7093 7709 1
7093 7734 1
7094 7095 1
7094 7097 1
7094 7689 1
7094 7708 1
7094 7709 1
7094 7712 1
7095 7096 1
7095 7097 1
7095 7098 1
7096 7097 1
7096 7098 1
7096 7099 1
7096 7121 1
7096 7124 1
7096 7125 1
7097 7098 1
7097 7120 1
7097 7121 1
7097 7124 1
7097 7709 1
7097 7712 1
7097 7713 1
7097 7738 1
7098 7099 1
7098 7712 1
7098 7713 1
7099 7124 1
7099 7125 1
7099 7128 1
7099 7713 1
7099 7742 1
7100 7101 1
7100 7103 1
7100 7133 1
7100 7134 1
7101 7102 1
7101 7103 1
7101 7104 1
7102 7103 1
7102 7104 1
7102 7105 1
7102 7107 1
7102 7134 1
7102 7137 1
7102 7138 1
7103 7104 1
7103 7133 1
7103 7134 1
7103 7137 1
7103 7717 1
7103 7718 1
7103 7719 1
7103 7751 1
7104 7105 1
7104 7107 1
7104 7694 1
7104 7718 1
7104 7719 1
7104 7722 1
7105 7106 1
7105 7107 1
7105 7108 1
7106 7107 1
7106 7108 1
7106 7109 1
7106 7111 1
7106 7138 1
7106 7141 1
7106 7142 1
7107 7108 1
7107 7137 1
7107 7138 1
7107 7141 1
7107 7719 1
7107 7722 1
7107 7723 1
7107 7755 1
7108 7109 1
7108 7111 1
7108 7697 1
7108 7722 1
7108 7723 1
7108 7726 1
7109 7110 1
7109 7111 1
7109 7112 1
7110 7111 1
7110 7112 1
7110 7142 1
7110 7145 1
7111 7112 1
7111 7141 1
7111 7142 1
7111 7145 1
7111 7723 1
7111 7726 1
7111 7727 1
7111 7759 1
7112 7701 1
7112 7726 1
7112 7727 1
7113 7114 1
7113 7115 1
7113 7116 1
7114 7115 1
7114 7116 1
7114 7117 1
7114 7119 1
7114 7146 1
7114 7149 1
7114 7150 1
7115 7116 1
7115 7146 1
7115 7149 1
7115 7730 1
7115 7731 1
7115 7763 1
7116 7117 1
7116 7119 1
7116 7705 1
7116 7730 1
7116 7731 1
7116 7734 1
7117 7118 1
7117 7119 1
7117 7120 1
7118 7119 1
7118 7120 1
7118 7121 1
7118 7123 1
7118 7150 1
7118 7153 1
7118 7154 1
7119 7120 1
7119 7149 1
7119 7150 1
7119 7153 1
7119 7731 1
7119 7734 1
7119 7735 1
7119 7767 1
7120 7121 1
7120 7123 1
7120 7709 1
7120 7734 1
7120 7735 1
7120 7738 1
7121 7122 1
7121 7123 1
7121 7124 1
7122 7123 1
7122 7124 1
7122 7125 1
7122 7127 1
7122 7154 1
7122 7157 1
7122 7158 1
7123 7124 1
7123 7153 1
7123 7154 1
7123 7157 1
7123 7735 1
7123 7738 1
7123 7739 1
7123 7771 1
7124 7125 1
7124 7127 1
7124 7713 1
7124 7738 1
7124 7739 1
7124 7742 1
7125 7126 1
7125 7127 1
7125 7128 1
7126 7127 1
7126 7128 1
7126 7129 1
7126 7158 1
7126 7161 1
7126 7162 1
7127 7128 1
7127 7157 1
7127 7158 1
7127 7161 1
7127 7739 1
7127 7742 1
7127 7743 1
7127 7775 1
7128 7129 1
7128 7742 1
7128 7743 1
7129 7161 1
7129 7162 1
7129 7165 1
7129 7743 1
7129 7779 1
7130 7132 1
7130 7170 1
7130 7173 1
7130 7174 1
7131 7132 1
7131 7133 1
7131 7134 1
7131 7136 1
7131 7174 1
7131 7177 1
7131 7178 1
7132 7133 1
7132 7173 1
7132 7174 1
7132 7177 1
7132 7747 1
7132 7748 1
7132 7791 1
7133 7134 1
7133 7136 1
7133 7717 1
7133 7748 1
7133 7751 1
7134 7135 1
7134 7136 1
7134 7137 1
7135 7136 1
7135 7137 1
7135 7138 1
7135 7140 1
7135 7178 1
7135 7181 1
7135 7182 1
7136 7137 1
7136 7177 1
7136 7178 1
7136 7181 1
7136 7748 1
7136 7751 1
7136 7752 1
7136 7795 1
7137 7138 1
7137 7140 1
7137 7719 1
7137 7751 1
7137 7752 1
7137 7755 1
7138 7139 1
7138 7140 1
7138 7141 1
7139 7140 1
7139 7141 1
7139 7142 1
7139 7144 1
7139 7182 1
7139 7185 1
7139 7186 1
7140 7141 1
7140 7181 1
7140 7182 1
7140 7185 1
7140 7752 1
7140 7755 1
7140 7756 1
7140 7799 1
7141 7142 1
7141 7144 1
7141 7723 1
7141 7755 1
7141 7756 1
7141 7759 1
7142 7143 1
7142 7144 1
7142 7145 1
7143 7144 1
7143 7145 1
7143 7186 1
7143 7189 1
7144 7145 1
7144 7185 1
7144 7186 1
7144 7189 1
7144 7756 1
7144 7759 1
7144 7760 1
7144 7803 1
7145 7727 1
7145 7759 1
7145 7760 1
7146 7147 1
7146 7148 1
7146 7149 1
7147 7148 1
7147 7149 1
7147 7150 1
7147 7152 1
7147 7190 1
7147 7193 1
7147 7194 1
7148 7149 1
7148 7190 1
7148 7193 1
7148 7763 1
7148 7764 1
7148 7807 1
7149 7150 1
7149 7152 1
7149 7731 1
7149 7763 1
7149 7764 1
7149 7767 1
7150 7151 1
7150 7152 1
7150 7153 1
7151 7152 1
7151 7153 1
7151 7154 1
7151 7156 1
7151 7194 1
7151 7197 1
7151 7198 1
7152 7153 1
7152 7193 1
7152 7194 1
7152 7197 1
7152 7764 1
7152 7767 1
7152 7768 1
7152 7811 1
7153 7154 1
7153 7156 1
7153 7735 1
7153 7767 1
7153 7768 1
7153 7771 1
7154 7155 1
7154 7156 1
7154 7157 1
7155 7156 1
7155 7157 1
7155 7158 1
7155 7160 1
7155 7198 1
7155 7201 1
7155 7202 1
7156 7157 1
7156 7197 1
7156 7198 1
7156 7201 1
7156 7768 1
7156 7771 1
7156 7772 1
7156 7815 1
7157 7158 1
7157 7160 1
7157 7739 1
7157 7771 1
7157 7772 1
7157 7775 1
7158 7159 1
7158 7160 1
7158 7161 1
7159 7160 1
7159 7161 1
7159 7162 1
7159 7164 1
7159 7202 1
7159 7205 1
7159 7206 1
7160 7161 1
7160 7201 1
7160 7202 1
7160 7205 1
7160 7772 1
7160 7775 1
7160 7776 1
7160 7819 1
7161 7162 1
7161 7164 1
7161 7743 1
7161 7775 1
7161 7776 1
7161 7779 1
7162 7163 1
7162 7164 1
7162 7165 1
7163 7164 1
7163 7165 1
7163 7167 1
7163 7206 1
7163 7209 1
7163 7210 1
7164 7165 1
7164 7205 1
7164 7206 1
7164 7209 1
7164 7776 1
7164 7779 1
7164 7780 1
7164 7823 1
7165 7167 1
7165 7779 1
7165 7780 1
7166 7167 1
7166 7210 1
7166 7213 1
7166 7214 1
7167 7209 1
7167 7210 1
7167 7213 1
7167 7780 1
7167 7783 1
7167 7827 1
7168 7169 1
7168 7170 1
7168 7172 1
7168 7232 1
7168 7235 1
7168 7236 1
7169 7231 1
7169 7232 1
7169 7235 1
7169 7785 1
7169 7849 1
7170 7171 1
7170 7172 1
7170 7173 1
7171 7172 1
7171 7173 1
7171 7174 1
7171 7176 1
7171 7236 1
7171 7239 1
7171 7240 1
7172 7173 1
7172 7235 1
7172 7236 1
7172 7239 1
7172 7785 1
7172 7787 1
7172 7788 1
7172 7853 1
7173 7174 1
7173 7176 1
7173 7747 1
7173 7787 1
7173 7788 1
7173 7791 1
7174 7175 1
7174 7176 1
7174 7177 1
7175 7176 1
7175 7177 1
7175 7178 1
7175 7180 1
7175 7240 1
7175 7243 1
7175 7244 1
7176 7177 1
7176 7239 1
7176 7240 1
7176 7243 1
7176 7788 1
7176 7791 1
7176 7792 1
7176 7857 1
7177 7178 1
7177 7180 1
7177 7748 1
7177 7791 1
7177 7792 1
7177 7795 1
7178 7179 1
7178 7180 1
7178 7181 1
7179 7180 1
7179 7181 1
7179 7182 1
7179 7184 1
7179 7244 1
7179 7247 1
7179 7248 1
7180 7181 1
7180 7243 1
7180 7244 1
7180 7247 1
7180 7792 1
7180 7795 1
7180 7796 1
7180 7861 1
7181 7182 1
7181 7184 1
7181 7752 1
7181 7795 1
7181 7796 1
7181 7799 1
7182 7183 1
7182 7184 1
7182 7185 1
7183 7184 1
7183 7185 1
7183 7186 1
7183 7188 1
7183 7248 1
7183 7251 1
7183 7252 1
7184 7185 1
7184 7247 1
7184 7248 1
7184 7251 1
7184 7796 1
7184 7799 1
7184 7800 1
7184 7865 1
7185 7186 1
7185 7188 1
7185 7756 1
7185 7799 1
7185 7800 1
7185 7803 1
7186 7187 1
7186 7188 1
7186 7189 1
7187 7188 1
7187 7189 1
7187 7252 1
7187 7255 1
7188 7189 1
7188 7251 1
7188 7252 1
7188 7255 1
7188 7800 1
7188 7803 1
7188 7804 1
7188 7869 1
7189 7760 1
7189 7803 1
7189 7804 1
7190 7191 1
7190 7192 1
7190 7193 1
7191 7192 1
7191 7193 1
7191 7194 1
7191 7196 1
7191 7256 1
7191 7259 1
7191 7260 1
7192 7193 1
7192 7256 1
7192 7259 1
7192 7807 1
7192 7808 1
7192 7873 1
7193 7194 1
7193 7196 1
7193 7764 1
7193 7807 1
7193 7808 1
7193 7811 1
7194 7195 1
7194 7196 1
7194 7197 1
7195 7196 1
7195 7197 1
7195 7198 1
7195 7200 1
7195 7260 1
7195 7263 1
7195 7264 1
7196 7197 1
7196 7259 1
7196 7260 1
7196 7263 1
7196 7808 1
7196 7811 1
7196 7812 1
7196 7877 1
7197 7198 1
7197 7200 1
7197 7768 1
7197 7811 1
7197 7812 1
7197 7815 1
7198 7199 1
7198 7200 1
7198 7201 1
7199 7200 1
7199 7201 1
7199 7202 1
7199 7204 1
7199 7264 1
7199 7267 1
7199 7268 1
7200 7201 1
7200 7263 1
7200 7264 1
7200 7267 1
7200 7812 1
7200 7815 1
7200 7816 1
7200 7881 1
7201 7202 1
7201 7204 1
7201 7772 1
7201 7815 1
7201 7816 1
7201 7819 1
7202 7203 1
7202 7204 1
7202 7205 1
7203 7204 1
7203 7205 1
7203 7206 1
7203 7208 1
7203 7268 1
7203 7271 1
7203 7272 1
7204 7205 1
7204 7267 1
7204 7268 1
7204 7271 1
7204 7816 1
7204 7819 1
7204 7820 1
7204 7885 1
7205 7206 1
7205 7208 1
7205 7776 1
7205 7819 1
7205 7820 1
7205 7823 1
7206 7207 1
7206 7208 1
7206 7209 1
7207 7208 1
7207 7209 1
7207 7210 1
7207 7212 1
7207 7272 1
7207 7275 1
7207 7276 1
7208 7209 1
7208 7271 1
7208 7272 1
7208 7275 1
7208 7820 1
7208 7823 1
7208 7824 1
7208 7889 1
7209 7210 1
7209 7212 1
7209 7780 1
7209 7823 1
7209 7824 1
7209 7827 1
7210 7211 1
7210 7212 1
7210 7213 1
7211 7212 1
7211 7213 1
7211 7214 1
7211 7216 1
7211 7276 1
7211 7279 1
7211 7280 1
7212 7213 1
7212 7275 1
7212 7276 1
7212 7279 1
7212 7824 1
7212 7827 1
7212 7828 1
7212 7893 1
7213 7214 1
7213 7216 1
7213 7783 1
7213 7827 1
7213 7828 1
7213 7831 1
7214 7215 1
7214 7216 1
7214 7217 1
7215 7216 1
7215 7217 1
7215 7218 1
7215 7220 1
7215 7280 1
7215 7283 1
7215 7284 1
7216 7217 1
7216 7279 1
7216 7280 1
7216 7283 1
7216 7828 1
7216 7831 1
7216 7832 1
7216 7897 1
7217 7218 1
7217 7220 1
7217 7831 1
7217 7832 1
7217 7835 1
7218 7219 1
7218 7220 1
7219 7220 1
7219 7222 1
7219 7284 1
7219 7287 1
7219 7288 1
7220 7283 1
7220 7284 1
7220 7287 1
7220 7832 1
7220 7835 1
7220 7836 1
7220 7901 1
7221 7222 1
7221 7224 1
7221 7288 1
7221 7291 1
7221 7292 1
7222 7287 1
7222 7288 1
7222 7291 1
7222 7836 1
7222 7838 1
7222 7905 1
7223 7224 1
7223 7226 1
7223 7292 1
7223 7295 1
7223 7296 1
7224 7291 1
7224 7292 1
7224 7295 1
7224 7838 1
7224 7840 1
7224 7909 1
7225 7226 1
7225 7227 1
7225 7228 1
7225 7230 1
7225 7296 1
7225 7299 1
7225 7300 1
7226 7227 1
7226 7295 1
7226 7296 1
7226 7299 1
7226 7840 1
7226 7842 1
7226 7913 1
7227 7228 1
7227 7230 1
7227 7842 1
7227 7845 1
7228 7229 1
7228 7230 1
7228 7231 1
7229 7230 1
7229 7231 1
7229 7232 1
7229 7234 1
7229 7300 1
7229 7303 1
7229 7304 1
7230 7231 1
7230 7299 1
7230 7300 1
7230 7303 1
7230 7842 1
7230 7845 1
7230 7846 1
7230 7917 1
7231 7232 1
7231 7234 1
7231 7845 1
7231 7846 1
7231 7849 1
7232 7233 1
7232 7234 1
7232 7235 1
7233 7234 1
7233 7235 1
7233 7236 1
7233 7238 1
7233 7304 1
7233 7307 1
7233 7308 1
7234 7235 1
7234 7303 1
7234 7304 1
7234 7307 1
7234 7846 1
7234 7849 1
7234 7850 1
7234 7921 1
7235 7236 1
7235 7238 1
7235 7785 1
7235 7849 1
7235 7850 1
7235 7853 1
7236 7237 1
7236 7238 1
7236 7239 1
7237 7238 1
7237 7239 1
7237 7240 1
7237 7242 1
7237 7308 1
7237 7311 1
7237 7312 1
7238 7239 1
7238 7307 1
7238 7308 1
7238 7311 1
7238 7850 1
7238 7853 1
7238 7854 1
7238 7925 1
7239 7240 1
7239 7242 1
7239 7788 1
7239 7853 1
7239 7854 1
7239 7857 1
7240 7241 1
7240 7242 1
7240 7243 1
7241 7242 1
7241 7243 1
7241 7244 1
7241 7246 1
7241 7312 1
7241 7315 1
7241 7316 1
7242 7243 1
7242 7311 1
7242 7312 1
7242 7315 1
7242 7854 1
7242 7857 1
7242 7858 1
7242 7929 1
7243 7244 1
7243 7246 1
7243 7792 1
7243 7857 1
7243 7858 1
7243 7861 1
7244 7245 1
7244 7246 1
7244 7247 1
7245 7246 1
7245 7247 1
7245 7248 1
7245 7250 1
7245 7316 1
7245 7319 1
7245 7320 1
7246 7247 1
7246 7315 1
7246 7316 1
7246 7319 1
7246 7858 1
7246 7861 1
7246 7862 1
7246 7933 1
7247 7248 1
7247 7250 1
7247 7796 1
7247 7861 1
7247 7862 1
7247 7865 1
7248 7249 1
7248 7250 1
7248 7251 1
7249 7250 1
7249 7251 1
7249 7252 1
7249 7254 1
7249 7320 1
7249 7323 1
7249 7324 1
7250 7251 1
7250 7319 1
7250 7320 1
7250 7323 1
7250 7862 1
7250 7865 1
7250 7866 1
7250 7937 1
7251 7252 1
7251 7254 1
7251 7800 1
7251 7865 1
7251 7866 1
7251 7869 1
7252 7253 1
7252 7254 1
7252 7255 1
7253 7254 1
7253 7255 1
7253 7324 1
7253 7327 1
7254 7255 1
7254 7323 1
7254 7324 1
7254 7327 1
7254 7866 1
7254 7869 1
7254 7870 1
7254 7941 1
7255 7804 1
7255 7869 1
7255 7870 1
7256 7257 1
7256 7258 1
7256 7259 1
7257 7258 1
7257 7259 1
7257 7260 1
7257 7262 1
7258 7259 1
7258 7873 1
7258 7874 1
7259 7260 1
7259 7262 1
7259 7808 1
7259 7873 1
7259 7874 1
7259 7877 1
7260 7261 1
7260 7262 1
7260 7263 1
7261 7262 1
7261 7263 1
7261 7264 1
7261 7266 1
7262 7263 1
7262 7874 1
7262 7877 1
7262 7878 1
7263 7264 1
7263 7266 1
7263 7812 1
7263 7877 1
7263 7878 1
7263 7881 1
7264 7265 1
7264 7266 1
7264 7267 1
7265 7266 1
7265 7267 1
7265 7268 1
7265 7270 1
7266 7267 1
7266 7878 1
7266 7881 1
7266 7882 1
7267 7268 1
7267 7270 1
7267 7816 1
7267 7881 1
7267 7882 1
7267 7885 1
7268 7269 1
7268 7270 1
7268 7271 1
7269 7270 1
7269 7271 1
7269 7272 1
7269 7274 1
7270 7271 1
7270 7882 1
7270 7885 1
7270 7886 1
7271 7272 1
7271 7274 1
7271 7820 1
7271 7885 1
7271 7886 1
7271 7889 1
7272 7273 1
7272 7274 1
7272 7275 1
7273 7274 1
7273 7275 1
7273 7276 1
7273 7278 1
7274 7275 1
7274 7886 1
7274 7889 1
7274 7890 1
7275 7276 1
7275 7278 1
7275 7824 1
7275 7889 1
7275 7890 1
7275 7893 1
7276 7277 1
7276 7278 1
7276 7279 1
7277 7278 1
7277 7279 1
7277 7280 1
7277 7282 1
7278 7279 1
7278 7890 1
7278 7893 1
7278 7894 1
7279 7280 1
7279 7282 1
7279 7828 1
7279 7893 1
7279 7894 1
7279 7897 1
7280 7281 1
7280 7282 1
7280 7283 1
7281 7282 1
7281 7283 1
7281 7284 1
7281 7286 1
7282 7283 1
7282 7894 1
7282 7897 1
7282 7898 1
7283 7284 1
7283 7286 1
7283 7832 1
7283 7897 1
7283 7898 1
7283 7901 1
7284 7285 1
7284 7286 1
7284 7287 1
7285 7286 1
7285 7287 1
7285 7288 1
7285 7290 1
7286 7287 1
7286 7898 1
7286 7901 1
7286 7902 1
7287 7288 1
7287 7290 1
7287 7836 1
7287 7901 1
7287 7902 1
7287 7905 1
7288 7289 1
7288 7290 1
7288 7291 1
7289 7290 1
7289 7291 1
7289 7292 1
7289 7294 1
7290 7291 1
7290 7902 1
7290 7905 1
7290 7906 1
7291 7292 1
7291 7294 1
7291 7838 1
7291 7905 1
7291 7906 1
7291 7909 1
7292 7293 1
7292 7294 1
7292 7295 1
7293 7294 1
7293 7295 1
7293 7296 1
7293 7298 1
7294 7295 1
7294 7906 1
7294 7909 1
7294 7910 1
7295 7296 1
7295 7298 1
7295 7840 1
7295 7909 1
7295 7910 1
7295 7913 1
7296 7297 1
7296 7298 1
7296 7299 1
7297 7298 1
7297 7299 1
7297 7300 1
7297 7302 1
7298 7299 1
7298 7910 1
7298 7913 1
7298 7914 1
7299 7300 1
7299 7302 1
7299 7842 1
7299 7913 1
7299 7914 1
7299 7917 1
7300 7301 1
7300 7302 1
7300 7303 1
7301 7302 1
7301 7303 1
7301 7304 1
7301 7306 1
7302 7303 1
7302 7914 1
7302 7917 1
7302 7918 1
7303 7304 1
7303 7306 1
7303 7846 1
7303 7917 1
7303 7918 1
7303 7921 1
7304 7305 1
7304 7306 1
7304 7307 1
7305 7306 1
7305 7307 1
7305 7308 1
7305 7310 1
7306 7307 1
7306 7918 1
7306 7921 1
7306 7922 1
7307 7308 1
7307 7310 1
7307 7850 1
7307 7921 1
7307 7922 1
7307 7925 1
7308 7309 1
7308 7310 1
7308 7311 1
7309 7310 1
7309 7311 1
7309 7312 1
7309 7314 1
7310 7311 1
7310 7922 1
7310 7925 1
7310 7926 1
7311 7312 1
7311 7314 1
7311 7854 1
7311 7925 1
7311 7926 1
7311 7929 1
7312 7313 1
7312 7314 1
7312 7315 1
7313 7314 1
7313 7315 1
7313 7316 1
7313 7318 1
7314 7315 1
7314 7926 1
7314 7929 1
7314 7930 1
7315 7316 1
7315 7318 1
7315 7858 1
7315 7929 1
7315 7930 1
7315 7933 1
7316 7317 1
7316 7318 1
7316 7319 1
7317 7318 1
7317 7319 1
7317 7320 1
7317 7322 1
7318 7319 1
7318 7930 1
7318 7933 1
7318 7934 1
7319 7320 1
7319 7322 1
7319 7862 1
7319 7933 1
7319 7934 1
7319 7937 1
7320 7321 1
7320 7322 1
7320 7323 1
7321 7322 1
7321 7323 1
7321 7324 1
7321 7326 1
7322 7323 1
7322 7934 1
7322 7937 1
7322 7938 1
7323 7324 1
7323 7326 1
7323 7866 1
7323 7937 1
7323 7938 1
7323 7941 1
7324 7325 1
7324 7326 1
7324 7327 1
7325 7326 1
7325 7327 1
7326 7327 1
7326 7938 1
7326 7941 1
7326 7942 1
7327 7870 1
7327 7941 1
7327 7942 1
7328 7329 1
7328 7330 1
7328 7331 1
7329 7330 1
7329 7331 1
7329 7332 1
7329 7334 1
7329 7400 1
7329 7403 1
7329 7404 1
7330 7331 1
7330 7400 1
7330 7403 1
7330 7945 1
7330 7946 1
7330 8017 1
7331 7332 1
7331 7334 1
7331 7945 1
7331 7946 1
7331 7949 1
7332 7333 1
7332 7334 1
7332 7335 1
7333 7334 1
7333 7335 1
7333 7336 1
7333 7338 1
7333 7404 1
7333 7407 1
7333 7408 1
7334 7335 1
7334 7403 1
7334 7404 1
7334 7407 1
7334 7946 1
7334 7949 1
7334 7950 1
7334 8021 1
7335 7336 1
7335 7338 1
7335 7949 1
7335 7950 1
7335 7953 1
7336 7337 1
7336 7338 1
7336 7339 1
7337 7338 1
7337 7339 1
7337 7340 1
7337 7342 1
7337 7408 1
7337 7411 1
7337 7412 1
7338 7339 1
7338 7407 1
7338 7408 1
7338 7411 1
7338 7950 1
7338 7953 1
7338 7954 1
7338 8025 1
7339 7340 1
7339 7342 1
7339 7953 1
7339 7954 1
7339 7957 1
7340 7341 1
7340 7342 1
7340 7343 1
7341 7342 1
7341 7343 1
7341 7344 1
7341 7346 1
7341 7412 1
7341 7415 1
7341 7416 1
7342 7343 1
7342 7411 1
7342 7412 1
7342 7415 1
7342 7954 1
7342 7957 1
7342 7958 1
7342 8029 1
7343 7344 1
7343 7346 1
7343 7957 1
7343 7958 1
7343 7961 1
7344 7345 1
7344 7346 1
7344 7347 1
7345 7346 1
7345 7347 1
7345 7348 1
7345 7350 1
7345 7416 1
7345 7419 1
7345 7420 1
7346 7347 1
7346 7415 1
7346 7416 1
7346 7419 1
7346 7958 1
7346 7961 1
7346 7962 1
7346 8033 1
7347 7348 1
7347 7350 1
7347 7961 1
7347 7962 1
7347 7965 1
7348 7349 1
7348 7350 1
7348 7351 1
7349 7350 1
7349 7351 1
7349 7352 1
7349 7354 1
7349 7420 1
7349 7423 1
7349 7424 1
7350 7351 1
7350 7419 1
7350 7420 1
7350 7423 1
7350 7962 1
7350 7965 1
7350 7966 1
7350 8037 1
7351 7352 1
7351 7354 1
7351 7965 1
7351 7966 1
7351 7969 1
7352 7353 1
7352 7354 1
7352 7355 1
7353 7354 1
7353 7355 1
7353 7356 1
7353 7358 1
7353 7424 1
7353 7427 1
7353 7428 1
7354 7355 1
7354 7423 1
7354 7424 1
7354 7427 1
7354 7966 1
7354 7969 1
7354 7970 1
7354 8041 1
7355 7356 1
7355 7358 1
7355 7969 1
7355 7970 1
7355 7973 1
7356 7357 1
7356 7358 1
7356 7359 1
7357 7358 1
7357 7359 1
7357 7360 1
7357 7362 1
7357 7428 1
7357 7431 1
7357 7432 1
7358 7359 1
7358 7427 1
7358 7428 1
7358 7431 1
7358 7970 1
7358 7973 1
7358 7974 1
7358 8045 1
7359 7360 1
7359 7362 1
7359 7973 1
7359 7974 1
7359 7977 1
7360 7361 1
7360 7362 1
7360 7363 1
7361 7362 1
7361 7363 1
7361 7364 1
7361 7366 1
7361 7432 1
7361 7434 1
7361 7435 1
7362 7363 1
7362 7431 1
7362 7432 1
7362 7434 1
7362 7974 1
7362 7977 1
7362 7978 1
7362 8049 1
7363 7364 1
7363 7366 1
7363 7977 1
7363 7978 1
7363 7981 1
7364 7365 1
7364 7366 1
7364 7367 1
7365 7366 1
7365 7367 1
7365 7368 1
7365 7370 1
7365 7435 1
7365 7436 1
7365 7437 1
7366 7367 1
7366 7434 1
7366 7435 1
7366 7436 1
7366 7978 1
7366 7981 1
7366 7982 1
7366 8052 1
7367 7368 1
7367 7370 1
7367 7981 1
7367 7982 1
7367 7985 1
7368 7369 1
7368 7370 1
7368 7371 1
7369 7370 1
7369 7371 1
7369 7372 1
7369 7374 1
7369 7437 1
7369 7440 1
7369 7441 1
7370 7371 1
7370 7436 1
7370 7437 1
7370 7440 1
7370 7982 1
7370 7985 1
7370 7986 1
7370 8054 1
7371 7372 1
7371 7374 1
7371 7985 1
7371 7986 1
7371 7989 1
7372 7373 1
7372 7374 1
7372 7375 1
7373 7374 1
7373 7375 1
7373 7376 1
7373 7378 1
7373 7441 1
7373 7444 1
7373 7445 1
7374 7375 1
7374 7440 1
7374 7441 1
7374 7444 1
7374 7986 1
7374 7989 1
7374 7990 1
7374 8058 1
7375 7376 1
7375 7378 1
7375 7989 1
7375 7990 1
7375 7993 1
7376 7377 1
7376 7378 1
7376 7379 1
7377 7378 1
7377 7379 1
7377 7380 1
7377 7382 1
7377 7445 1
7377 7448 1
7377 7449 1
7378 7379 1
7378 7444 1
7378 7445 1
7378 7448 1
7378 7990 1
7378 7993 1
7378 7994 1
7378 8062 1
7379 7380 1
7379 7382 1
7379 7993 1
7379 7994 1
7379 7997 1
7380 7381 1
7380 7382 1
7380 7383 1
7381 7382 1
7381 7383 1
7381 7384 1
7381 7386 1
7381 7449 1
7381 7452 1
7381 7453 1
7382 7383 1
7382 7448 1
7382 7449 1
7382 7452 1
7382 7994 1
7382 7997 1
7382 7998 1
7382 8066 1
7383 7384 1
7383 7386 1
7383 7997 1
7383 7998 1
7383 8001 1
7384 7385 1
7384 7386 1
7384 7387 1
7385 7386 1
7385 7387 1
7385 7388 1
7385 7390 1
7385 7453 1
7385 7456 1
7385 7457 1
7386 7387 1
7386 7452 1
7386 7453 1
7386 7456 1
7386 7998 1
7386 8001 1
7386 8002 1
7386 8070 1
7387 7388 1
7387 7390 1
7387 8001 1
7387 8002 1
7387 8005 1
7388 7389 1
7388 7390 1
7388 7391 1
7389 7390 1
7389 7391 1
7389 7392 1
7389 7394 1
7389 7457 1
7389 7460 1
7389 7461 1
7390 7391 1
7390 7456 1
7390 7457 1
7390 7460 1
7390 8002 1
7390 8005 1
7390 8006 1
7390 8074 1
7391 7392 1
7391 7394 1
7391 8005 1
7391 8006 1
7391 8009 1
7392 7393 1
7392 7394 1
7392 7395 1
7393 7394 1
7393 7395 1
7393 7396 1
7393 7398 1
7393 7461 1
7393 7464 1
7393 7465 1
7394 7395 1
7394 7460 1
7394 7461 1
7394 7464 1
7394 8006 1
7394 8009 1
7394 8010 1
7394 8078 1
7395 7396 1
7395 7398 1
7395 8009 1
7395 8010 1
7395 8013 1
7396 7397 1
7396 7398 1
7396 7399 1
7397 7398 1
7397 7399 1
7397 7465 1
7397 7468 1
7398 7399 1
7398 7464 1
7398 7465 1
7398 7468 1
7398 8010 1
7398 8013 1
7398 8014 1
7398 8082 1
7399 8013 1
7399 8014 1
7400 7401 1
7400 7402 1
7400 7403 1
7401 7402 1
7401 7403 1
7401 7404 1
7401 7406 1
7401 7469 1
7401 7472 1
7401 7473 1
7402 7403 1
7402 7469 1
7402 7472 1
7402 8017 1
7402 8018 1
7402 8086 1
7403 7404 1
7403 7406 1
7403 7946 1
7403 8017 1
7403 8018 1
7403 8021 1
7404 7405 1
7404 7406 1
7404 7407 1
7405 7406 1
7405 7407 1
7405 7408 1
7405 7410 1
7405 7473 1
7405 7476 1
7405 7477 1
7406 7407 1
7406 7472 1
7406 7473 1
7406 7476 1
7406 8018 1
7406 8021 1
7406 8022 1
7406 8090 1
7407 7408 1
7407 7410 1
7407 7950 1
7407 8021 1
7407 8022 1
7407 8025 1
7408 7409 1
7408 7410 1
7408 7411 1
7409 7410 1
7409 7411 1
7409 7412 1
7409 7414 1
7409 7477 1
7409 7480 1
7409 7481 1
7410 7411 1
7410 7476 1
7410 7477 1
7410 7480 1
7410 8022 1
7410 8025 1
7410 8026 1
7410 8094 1
7411 7412 1
7411 7414 1
7411 7954 1
7411 8025 1
7411 8026 1
7411 8029 1
7412 7413 1
7412 7414 1
7412 7415 1
7413 7414 1
7413 7415 1
7413 7416 1
7413 7418 1
7413 7481 1
7413 7484 1
7413 7485 1
7414 7415 1
7414 7480 1
7414 7481 1
7414 7484 1
7414 8026 1
7414 8029 1
7414 8030 1
7414 8098 1
7415 7416 1
7415 7418 1
7415 7958 1
7415 8029 1
7415 8030 1
7415 8033 1
7416 7417 1
7416 7418 1
7416 7419 1
7417 7418 1
7417 7419 1
7417 7420 1
7417 7422 1
7417 7485 1
7417 7488 1
7417 7489 1
7418 7419 1
7418 7484 1
7418 7485 1
7418 7488 1
7418 8030 1
7418 8033 1
7418 8034 1
7418 8102 1
7419 7420 1
7419 7422 1
7419 7962 1
7419 8033 1
7419 8034 1
7419 8037 1
7420 7421 1
7420 7422 1
7420 7423 1
7421 7422 1
7421 7423 1
7421 7424 1
7421 7426 1
7421 7489 1
7421 7491 1
7421 7492 1
7422 7423 1
7422 7488 1
7422 7489 1
7422 7491 1
7422 8034 1
7422 8037 1
7422 8038 1
7422 8106 1
7423 7424 1
7423 7426 1
7423 7966 1
7423 8037 1
7423 8038 1
7423 8041 1
7424 7425 1
7424 7426 1
7424 7427 1
7425 7426 1
7425 7427 1
7425 7428 1
7425 7430 1
7425 7492 1
7426 7427 1
7426 7491 1
7426 7492 1
7426 8038 1
7426 8041 1
7426 8042 1
7426 8109 1
7427 7428 1
7427 7430 1
7427 7970 1
7427 8041 1
7427 8042 1
7427 8045 1
7428 7429 1
7428 7430 1
7428 7431 1
7429 7430 1
7429 7431 1
7429 7432 1
7429 7433 1
7430 7431 1
7430 8042 1
7430 8045 1
7430 8046 1
7431 7432 1
7431 7433 1
7431 7974 1
7431 8045 1
7431 8046 1
7431 8049 1
7432 7433 1
7432 7434 1
7433 7434 1
7433 8046 1
7433 8049 1
7434 7435 1
7434 7978 1
7434 8049 1
7434 8052 1
7435 7436 1
7436 7437 1
7436 7439 1
7436 7982 1
7436 8052 1
7436 8054 1
7437 7438 1
7437 7439 1
7437 7440 1
7438 7439 1
7438 7440 1
7438 7441 1
7438 7443 1
7439 7440 1
7439 8054 1
7439 8055 1
7440 7441 1
7440 7443 1
7440 7986 1
7440 8054 1
7440 8055 1
7440 8058 1
7441 7442 1
7441 7443 1
7441 7444 1
7442 7443 1
7442 7444 1
7442 7445 1
7442 7447 1
7442 7493 1
7443 7444 1
7443 8055 1
7443 8058 1
7443 8059 1
7444 7445 1
7444 7447 1
7444 7990 1
7444 8058 1
7444 8059 1
7444 8062 1
7445 7446 1
7445 7447 1
7445 7448 1
7446 7447 1
7446 7448 1
7446 7449 1
7446 7451 1
7446 7493 1
7446 7494 1
7446 7495 1
7447 7448 1
7447 7493 1
7447 7494 1
7447 8059 1
7447 8062 1
7447 8063 1
7447 8110 1
7448 7449 1
7448 7451 1
7448 7994 1
7448 8062 1
7448 8063 1
7448 8066 1
7449 7450 1
7449 7451 1
7449 7452 1
7450 7451 1
7450 7452 1
7450 7453 1
7450 7455 1
7450 7495 1
7450 7498 1
7450 7499 1
7451 7452 1
7451 7494 1
7451 7495 1
7451 7498 1
7451 8063 1
7451 8066 1
7451 8067 1
7451 8112 1
7452 7453 1
7452 7455 1
7452 7998 1
7452 8066 1
7452 8067 1
7452 8070 1
7453 7454 1
7453 7455 1
7453 7456 1
7454 7455 1
7454 7456 1
7454 7457 1
7454 7459 1
7454 7499 1
7454 7502 1
7454 7503 1
7455 7456 1
7455 7498 1
7455 7499 1
7455 7502 1
7455 8067 1
7455 8070 1
7455 8071 1
7455 8116 1
7456 7457 1
7456 7459 1
7456 8002 1
7456 8070 1
7456 8071 1
7456 8074 1
7457 7458 1
7457 7459 1
7457 7460 1
7458 7459 1
7458 7460 1
7458 7461 1
7458 7463 1
7458 7503 1
7458 7506 1
7458 7507 1
7459 7460 1
7459 7502 1
7459 7503 1
7459 7506 1
7459 8071 1
7459 8074 1
7459 8075 1
7459 8120 1
7460 7461 1
7460 7463 1
7460 8006 1
7460 8074 1
7460 8075 1
7460 8078 1
7461 7462 1
7461 7463 1
7461 7464 1
7462 7463 1
7462 7464 1
7462 7465 1
7462 7467 1
7462 7507 1
7462 7510 1
7462 7511 1
7463 7464 1
7463 7506 1
7463 7507 1
7463 7510 1
7463 8075 1
7463 8078 1
7463 8079 1
7463 8124 1
7464 7465 1
7464 7467 1
7464 8010 1
7464 8078 1
7464 8079 1
7464 8082 1
7465 7466 1
7465 7467 1
7465 7468 1
7466 7467 1
7466 7468 1
7466 7511 1
7466 7514 1
7467 7468 1
7467 7510 1
7467 7511 1
7467 7514 1
7467 8079 1
7467 8082 1
7467 8083 1
7467 8128 1
7468 8014 1
7468 8082 1
7468 8083 1
7469 7470 1
7469 7471 1
7469 7472 1
7470 7471 1
7470 7472 1
7470 7473 1
7470 7475 1
7470 7515 1
7470 7518 1
7470 7519 1
7471 7472 1
7471 7515 1
7471 7518 1
7471 8086 1
7471 8087 1
7471 8132 1
7472 7473 1
7472 7475 1
7472 8018 1
7472 8086 1
7472 8087 1
7472 8090 1
7473 7474 1
7473 7475 1
7473 7476 1
7474 7475 1
7474 7476 1
7474 7477 1
7474 7479 1
7474 7519 1
7474 7522 1
7474 7523 1
7475 7476 1
7475 7518 1
7475 7519 1
7475 7522 1
7475 8087 1
7475 8090 1
7475 8091 1
7475 8136 1
7476 7477 1
7476 7479 1
7476 8022 1
7476 8090 1
7476 8091 1
7476 8094 1
7477 7478 1
7477 7479 1
7477 7480 1
7478 7479 1
7478 7480 1
7478 7481 1
7478 7483 1
7478 7523 1
7478 7526 1
7478 7527 1
7479 7480 1
7479 7522 1
7479 7523 1
7479 7526 1
7479 8091 1
7479 8094 1
7479 8095 1
7479 8140 1
7480 7481 1
7480 7483 1
7480 8026 1
7480 8094 1
7480 8095 1
7480 8098 1
7481 7482 1
7481 7483 1
7481 7484 1
7482 7483 1
7482 7484 1
7482 7485 1
7482 7487 1
7482 7527 1
7482 7530 1
7482 7531 1
7483 7484 1
7483 7526 1
7483 7527 1
7483 7530 1
7483 8095 1
7483 8098 1
7483 8099 1
7483 8144 1
7484 7485 1
7484 7487 1
7484 8030 1
7484 8098 1
7484 8099 1
7484 8102 1
7485 7486 1
7485 7487 1
7485 7488 1
7486 7487 1
7486 7488 1
7486 7489 1
7486 7490 1
7486 7531 1
7487 7488 1
7487 7530 1
7487 7531 1
7487 8099 1
7487 8102 1
7487 8103 1
7487 8148 1
7488 7489 1
7488 7490 1
7488 8034 1
7488 8102 1
7488 8103 1
7488 8106 1
7489 7490 1
7489 7491 1
7490 7491 1
7490 8103 1
7490 8106 1
7491 7492 1
7491 8038 1
7491 8106 1
7491 8109 1
7493 7494 1
7494 7495 1
7494 7497 1
7494 8063 1
7494 8110 1
7494 8112 1
7495 7496 1
7495 7497 1
7495 7498 1
7496 7497 1
7496 7498 1
7496 7499 1
7496 7501 1
7496 7532 1
7496 7533 1
7497 7498 1
7497 7532 1
7497 8112 1
7497 8113 1
7498 7499 1
7498 7501 1
7498 8067 1
7498 8112 1
7498 8113 1
7498 8116 1
7499 7500 1
7499 7501 1
7499 7502 1
7500 7501 1
7500 7502 1
7500 7503 1
7500 7505 1
7500 7533 1
7500 7536 1
7500 7537 1
7501 7502 1
7501 7532 1
7501 7533 1
7501 7536 1
7501 8113 1
7501 8116 1
7501 8117 1
7501 8150 1
7502 7503 1
7502 7505 1
7502 8071 1
7502 8116 1
7502 8117 1
7502 8120 1
7503 7504 1
7503 7505 1
7503 7506 1
7504 7505 1
7504 7506 1
7504 7507 1
7504 7509 1
7504 7537 1
7504 7540 1
7504 7541 1
7505 7506 1
7505 7536 1
7505 7537 1
7505 7540 1
7505 8117 1
7505 8120 1
7505 8121 1
7505 8154 1
7506 7507 1
7506 7509 1
7506 8075 1
7506 8120 1
7506 8121 1
7506 8124 1
7507 7508 1
7507 7509 1
7507 7510 1
7508 7509 1
7508 7510 1
7508 7511 1
7508 7513 1
7508 7541 1
7508 7544 1
7508 7545 1
7509 7510 1
7509 7540 1
7509 7541 1
7509 7544 1
7509 8121 1
7509 8124 1
7509 8125 1
7509 8158 1
7510 7511 1
7510 7513 1
7510 8079 1
7510 8124 1
7510 8125 1
7510 8128 1
7511 7512 1
7511 7513 1
7511 7514 1
7512 7513 1
7512 7514 1
7512 7545 1
7512 7548 1
7513 7514 1
7513 7544 1
7513 7545 1
7513 7548 1
7513 8125 1
7513 8128 1
7513 8129 1
7513 8162 1
7514 8083 1
7514 8128 1
7514 8129 1
7515 7516 1
7515 7517 1
7515 7518 1
7516 7517 1
7516 7518 1
7516 7519 1
7516 7521 1
7516 7549 1
7516 7552 1
7516 7553 1
7517 7518 1
7517 7549 1
7517 7552 1
7517 8132 1
7517 8133 1
7517 8166 1
7518 7519 1
7518 7521 1
7518 8087 1
7518 8132 1
7518 8133 1
7518 8136 1
7519 7520 1
7519 7521 1
7519 7522 1
7520 7521 1
7520 7522 1
7520 7523 1
7520 7525 1
7520 7553 1
7520 7556 1
7520 7557 1
7521 7522 1
7521 7552 1
7521 7553 1
7521 7556 1
7521 8133 1
7521 8136 1
7521 8137 1
7521 8170 1
7522 7523 1
7522 7525 1
7522 8091 1
7522 8136 1
7522 8137 1
7522 8140 1
7523 7524 1
7523 7525 1
7523 7526 1
7524 7525 1
7524 7526 1
7524 7527 1
7524 7529 1
7524 7557 1
7524 7560 1
7524 7561 1
7525 7526 1
7525 7556 1
7525 7557 1
7525 7560 1
7525 8137 1
7525 8140 1
7525 8141 1
7525 8174 1
7526 7527 1
7526 7529 1
7526 8095 1
7526 8140 1
7526 8141 1
7526 8144 1
7527 7528 1
7527 7529 1
7527 7530 1
7528 7529 1
7528 7530 1
7528 7531 1
7528 7561 1
7529 7530 1
7529 7560 1
7529 7561 1
7529 8141 1
7529 8144 1
7529 8145 1
7529 8178 1
7530 7531 1
7530 8099 1
7530 8144 1
7530 8145 1
7530 8148 1
7532 7533 1
7532 7535 1
7532 8113 1
7532 8150 1
7533 7534 1
7533 7535 1
7533 7536 1
7534 7535 1
7534 7536 1
7534 7537 1
7534 7539 1
7534 7562 1
7534 7563 1
7535 7536 1
7535 7562 1
7535 8150 1
7535 8151 1
7536 7537 1
7536 7539 1
7536 8117 1
7536 8150 1
7536 8151 1
7536 8154 1
7537 7538 1
7537 7539 1
7537 7540 1
7538 7539 1
7538 7540 1
7538 7541 1
7538 7543 1
7538 7563 1
7538 7566 1
7538 7567 1
7539 7540 1
7539 7562 1
7539 7563 1
7539 7566 1
7539 8151 1
7539 8154 1
7539 8155 1
7539 8180 1
7540 7541 1
7540 7543 1
7540 8121 1
7540 8154 1
7540 8155 1
7540 8158 1
7541 7542 1
7541 7543 1
7541 7544 1
7542 7543 1
7542 7544 1
7542 7545 1
7542 7547 1
7542 7567 1
7542 7570 1
7542 7571 1
7543 7544 1
7543 7566 1
7543 7567 1
7543 7570 1
7543 8155 1
7543 8158 1
7543 8159 1
7543 8184 1
7544 7545 1
7544 7547 1
7544 8125 1
7544 8158 1
7544 8159 1
7544 8162 1
7545 7546 1
7545 7547 1
7545 7548 1
7546 7547 1
7546 7548 1
7546 7571 1
7546 7574 1
7547 7548 1
7547 7570 1
7547 7571 1
7547 7574 1
7547 8159 1
7547 8162 1
7547 8163 1
7547 8188 1
7548 8129 1
7548 8162 1
7548 8163 1
7549 7550 1
7549 7551 1
7549 7552 1
7550 7551 1
7550 7552 1
7550 7553 1
7550 7555 1
7550 7575 1
7550 7578 1
7550 7579 1
7551 7552 1
7551 7575 1
7551 7578 1
7551 8166 1
7551 8167 1
7551 8192 1
7552 7553 1
7552 7555 1
7552 8133 1
7552 8166 1
7552 8167 1
7552 8170 1
7553 7554 1
7553 7555 1
7553 7556 1
7554 7555 1
7554 7556 1
7554 7557 1
7554 7559 1
7554 7579 1
7554 7582 1
7554 7583 1
7555 7556 1
7555 7578 1
7555 7579 1
7555 7582 1
7555 8167 1
7555 8170 1
7555 8171 1
7555 8196 1
7556 7557 1
7556 7559 1
7556 8137 1
7556 8170 1
7556 8171 1
7556 8174 1
7557 7558 1
7557 7559 1
7557 7560 1
7558 7559 1
7558 7560 1
7558 7561 1
7558 7583 1
7558 7585 1
7559 7560 1
7559 7582 1
7559 7583 1
7559 7585 1
7559 8171 1
7559 8174 1
7559 8175 1
7559 8200 1
7560 7561 1
7560 8141 1
7560 8174 1
7560 8175 1
7560 8178 1
7562 7563 1
7562 7565 1
7562 8151 1
7562 8180 1
7563 7564 1
7563 7565 1
7563 7566 1
7564 7565 1
7564 7566 1
7564 7567 1
7564 7569 1
7564 7587 1
7564 7588 1
7565 7566 1
7565 7587 1
7565 8180 1
7565 8181 1
7566 7567 1
7566 7569 1
7566 8155 1
7566 8180 1
7566 8181 1
7566 8184 1
7567 7568 1
7567 7569 1
7567 7570 1
7568 7569 1
7568 7570 1
7568 7571 1
7568 7573 1
7568 7588 1
7568 7591 1
7568 7592 1
7569 7570 1
7569 7587 1
7569 7588 1
7569 7591 1
7569 8181 1
7569 8184 1
7569 8185 1
7569 8205 1
7570 7571 1
7570 7573 1
7570 8159 1
7570 8184 1
7570 8185 1
7570 8188 1
7571 7572 1
7571 7573 1
7571 7574 1
7572 7573 1
7572 7574 1
7572 7592 1
7572 7595 1
7573 7574 1
7573 7591 1
7573 7592 1
7573 7595 1
7573 8185 1
7573 8188 1
7573 8189 1
7573 8209 1
7574 8163 1
7574 8188 1
7574 8189 1
7575 7576 1
7575 7577 1
7575 7578 1
7576 7577 1
7576 7578 1
7576 7579 1
7576 7581 1
7576 7596 1
7576 7599 1
7576 7600 1
7577 7578 1
7577 7596 1
7577 7599 1
7577 8192 1
7577 8193 1
7577 8213 1
7578 7579 1
7578 7581 1
7578 8167 1
7578 8192 1
7578 8193 1
7578 8196 1
7579 7580 1
7579 7581 1
7579 7582 1
7580 7581 1
7580 7582 1
7580 7583 1
7580 7584 1
7580 7600 1
7580 7603 1
7580 7604 1
7581 7582 1
7581 7599 1
7581 7600 1
7581 7603 1
7581 8193 1
7581 8196 1
7581 8197 1
7581 8217 1
7582 7583 1
7582 7584 1
7582 8171 1
7582 8196 1
7582 8197 1
7582 8200 1
7583 7584 1
7583 7585 1
7584 7585 1
7584 7603 1
7584 7604 1
7584 8197 1
7584 8200 1
7584 8221 1
7585 8175 1
7585 8200 1
7586 7587 1
7586 7588 1
7586 7590 1
7586 7605 1
7587 7588 1
7587 7590 1
7587 8181 1
7587 8203 1
7587 8205 1
7588 7589 1
7588 7590 1
7588 7591 1
7589 7590 1
7589 7591 1
7589 7592 1
7589 7594 1
7589 7605 1
7589 7608 1
7589 7609 1
7590 7591 1
7590 7605 1
7590 7608 1
7590 8203 1
7590 8205 1
7590 8206 1
7590 8222 1
7591 7592 1
7591 7594 1
7591 8185 1
7591 8205 1
7591 8206 1
7591 8209 1
7592 7593 1
7592 7594 1
7592 7595 1
7593 7594 1
7593 7595 1
7593 7609 1
7593 7612 1
7594 7595 1
7594 7608 1
7594 7609 1
7594 7612 1
7594 8206 1
7594 8209 1
7594 8210 1
7594 8226 1
7595 8189 1
7595 8209 1
7595 8210 1
7596 7597 1
7596 7598 1
7596 7599 1
7597 7598 1
7597 7599 1
7597 7600 1
7597 7602 1
7597 7613 1
7597 7616 1
7597 7617 1
7598 7599 1
7598 7613 1
7598 7616 1
7598 8213 1
7598 8214 1
7598 8230 1
7599 7600 1
7599 7602 1
7599 8193 1
7599 8213 1
7599 8214 1
7599 8217 1
7600 7601 1
7600 7602 1
7600 7603 1
7601 7602 1
7601 7603 1
7601 7604 1
7601 7617 1
7601 7620 1
7602 7603 1
7602 7616 1
7602 7617 1
7602 7620 1
7602 8214 1
7602 8217 1
7602 8218 1
7602 8234 1
7603 7604 1
7603 8197 1
7603 8217 1
7603 8218 1
7603 8221 1
7605 7606 1
7605 7607 1
7605 7608 1
7606 7607 1
7606 7608 1
7606 7609 1
7606 7611 1
7606 7621 1
7606 7623 1
7606 7624 1
7607 7608 1
7607 7621 1
7607 7623 1
7607 8222 1
7607 8223 1
7607 8238 1
7608 7609 1
7608 7611 1
7608 8206 1
7608 8222 1
7608 8223 1
7608 8226 1
7609 7610 1
7609 7611 1
7609 7612 1
7610 7611 1
7610 7612 1
7610 7624 1
7610 7627 1
7611 7612 1
7611 7623 1
7611 7624 1
7611 7627 1
7611 8223 1
7611 8226 1
7611 8227 1
7611 8241 1
7612 8210 1
7612 8226 1
7612 8227 1
7613 7614 1
7613 7615 1
7613 7616 1
7614 7615 1
7614 7616 1
7614 7617 1
7614 7619 1
7614 7628 1
7614 7631 1
7614 7632 1
7615 7616 1
7615 7628 1
7615 7631 1
7615 8230 1
7615 8231 1
7615 8245 1
7616 7617 1
7616 7619 1
7616 8214 1
7616 8230 1
7616 8231 1
7616 8234 1
7617 7618 1
7617 7619 1
7617 7620 1
7618 7619 1
7618 7620 1
7618 7632 1
7618 7634 1
7619 7620 1
7619 7631 1
7619 7632 1
7619 7634 1
7619 8231 1
7619 8234 1
7619 8235 1
7619 8249 1
7620 8218 1
7620 8234 1
7620 8235 1
7621 7622 1
7621 7623 1
7622 7623 1
7622 7624 1
7622 7626 1
7622 7636 1
7622 7637 1
7623 7624 1
7623 7626 1
7623 8223 1
7623 8238 1
7623 8239 1
7623 8241 1
7624 7625 1
7624 7626 1
7624 7627 1
7625 7626 1
7625 7627 1
7625 7637 1
7625 7640 1
7626 7627 1
7626 7636 1
7626 7637 1
7626 7640 1
7626 8239 1
7626 8241 1
7626 8242 1
7626 8254 1
7627 8227 1
7627 8241 1
7627 8242 1
7628 7629 1
7628 7630 1
7628 7631 1
7629 7630 1
7629 7631 1
7629 7632 1
7629 7633 1
7629 7641 1
7629 7644 1
7629 7645 1
7630 7631 1
7630 7641 1
7630 7644 1
7630 8245 1
7630 8246 1
7630 8258 1
7631 7632 1
7631 7633 1
7631 8231 1
7631 8245 1
7631 8246 1
7631 8249 1
7632 7633 1
7632 7634 1
7633 7634 1
7633 7644 1
7633 7645 1
7633 8246 1
7633 8249 1
7633 8262 1
7634 8235 1
7634 8249 1
7635 7636 1
7635 7637 1
7635 7639 1
7635 7648 1
7635 7649 1
7636 7637 1
7636 7639 1
7636 8239 1
7636 8252 1
7636 8254 1
7637 7638 1
7637 7639 1
7637 7640 1
7638 7639 1
7638 7640 1
7638 7649 1
7638 7652 1
7639 7640 1
7639 7648 1
7639 7649 1
7639 7652 1
7639 8252 1
7639 8254 1
7639 8255 1
7639 8266 1
7640 8242 1
7640 8254 1
7640 8255 1
7641 7642 1
7641 7643 1
7641 7644 1
7642 7643 1
7642 7644 1
7642 7645 1
7642 7646 1
7642 7653 1
7642 7656 1
7642 7657 1
7643 7644 1
7643 7653 1
7643 7656 1
7643 8258 1
7643 8259 1
7643 8270 1
7644 7645 1
7644 7646 1
7644 8246 1
7644 8258 1
7644 8259 1
7644 8262 1
7645 7646 1
7646 7656 1
7646 7657 1
7646 7660 1
7646 8259 1
7646 8262 1
7646 8274 1
7647 7648 1
7647 7649 1
7647 7651 1
7647 7663 1
7647 7664 1
7648 7649 1
7648 7651 1
7648 8252 1
7648 8264 1
7648 8266 1
7649 7650 1
7649 7651 1
7649 7652 1
7650 7651 1
7650 7652 1
7650 7664 1
7650 7667 1
7651 7652 1
7651 7663 1
7651 7664 1
7651 7667 1
7651 8264 1
7651 8266 1
7651 8267 1
7651 8281 1
7652 8255 1
7652 8266 1
7652 8267 1
7653 7654 1
7653 7655 1
7653 7656 1
7654 7655 1
7654 7656 1
7654 7657 1
7654 7659 1
7654 7668 1
7654 7671 1
7654 7672 1
7655 7656 1
7655 7668 1
7655 7671 1
7655 8270 1
7655 8271 1
7655 8285 1
7656 7657 1
7656 7659 1
7656 8259 1
7656 8270 1
7656 8271 1
7656 8274 1
7657 7658 1
7657 7659 1
7657 7660 1
7658 7659 1
7658 7660 1
7658 7672 1
7658 7675 1
7659 7660 1
7659 7671 1
7659 7672 1
7659 7675 1
7659 8271 1
7659 8274 1
7659 8275 1
7659 8289 1
7660 8274 1
7660 8275 1
7661 7662 1
7661 7663 1
7661 7664 1
7661 7666 1
7661 7676 1
7661 7679 1
7661 7680 1
7662 7663 1
7662 7676 1
7662 7679 1
7662 8278 1
7662 8293 1
7663 7664 1
7663 7666 1
7663 8264 1
7663 8278 1
7663 8281 1
7664 7665 1
7664 7666 1
7664 7667 1
7665 7666 1
7665 7667 1
7665 7680 1
7665 7683 1
7666 7667 1
7666 7679 1
7666 7680 1
7666 7683 1
7666 8278 1
7666 8281 1
7666 8282 1
7666 8297 1
7667 8267 1
7667 8281 1
7667 8282 1
7668 7669 1
7668 7670 1
7668 7671 1
7669 7670 1
7669 7671 1
7669 7672 1
7669 7674 1
7669 7684 1
7669 7687 1
7669 7688 1
7670 7671 1
7670 7684 1
7670 7687 1
7670 8285 1
7670 8286 1
7670 8301 1
7671 7672 1
7671 7674 1
7671 8271 1
7671 8285 1
7671 8286 1
7671 8289 1
7672 7673 1
7672 7674 1
7672 7675 1
7673 7674 1
7673 7675 1
7673 7688 1
7673 7691 1
7673 7692 1
7674 7675 1
7674 7687 1
7674 7688 1
7674 7691 1
7674 8286 1
7674 8289 1
7674 8290 1
7674 8305 1
7675 8275 1
7675 8289 1
7675 8290 1
7676 7677 1
7676 7678 1
7676 7679 1
7677 7678 1
7677 7679 1
7677 7680 1
7677 7682 1
7677 7696 1
7677 7699 1
7677 7700 1
7678 7679 1
7678 7695 1
7678 7696 1
7678 7699 1
7678 8293 1
7678 8294 1
7678 8313 1
7679 7680 1
7679 7682 1
7679 8278 1
7679 8293 1
7679 8294 1
7679 8297 1
7680 7681 1
7680 7682 1
7680 7683 1
7681 7682 1
7681 7683 1
7681 7700 1
7681 7703 1
7682 7683 1
7682 7699 1
7682 7700 1
7682 7703 1
7682 8294 1
7682 8297 1
7682 8298 1
7682 8317 1
7683 8282 1
7683 8297 1
7683 8298 1
7684 7685 1
7684 7686 1
7684 7687 1
7685 7686 1
7685 7687 1
7685 7688 1
7685 7690 1
7685 7704 1
7685 7707 1
7685 7708 1
7686 7687 1
7686 7704 1
7686 7707 1
7686 8301 1
7686 8302 1
7686 8321 1
7687 7688 1
7687 7690 1
7687 8286 1
7687 8301 1
7687 8302 1
7687 8305 1
7688 7689 1
7688 7690 1
7688 7691 1
7689 7690 1
7689 7691 1
7689 7692 1
7689 7693 1
7689 7708 1
7689 7711 1
7689 7712 1
7690 7691 1
7690 7707 1
7690 7708 1
7690 7711 1
7690 8302 1
7690 8305 1
7690 8306 1
7690 8325 1
7691 7692 1
7691 7693 1
7691 8290 1
7691 8305 1
7691 8306 1
7691 8309 1
7692 7693 1
7693 7711 1
7693 7712 1
7693 7715 1
7693 8306 1
7693 8309 1
7693 8329 1
7694 7695 1
7694 7696 1
7694 7698 1
7694 7718 1
7694 7721 1
7694 7722 1
7695 7696 1
7695 7698 1
7695 8311 1
7695 8313 1
7696 7697 1
7696 7698 1
7696 7699 1
7697 7698 1
7697 7699 1
7697 7700 1
7697 7702 1
7697 7722 1
7697 7725 1
7697 7726 1
7698 7699 1
7698 7721 1
7698 7722 1
7698 7725 1
7698 8311 1
7698 8313 1
7698 8314 1
7698 8339 1
7699 7700 1
7699 7702 1
7699 8294 1
7699 8313 1
7699 8314 1
7699 8317 1
7700 7701 1
7700 7702 1
7700 7703 1
7701 7702 1
7701 7703 1
7701 7726 1
7701 7729 1
7702 7703 1
7702 7725 1
7702 7726 1
7702 7729 1
7702 8314 1
7702 8317 1
7702 8318 1
7702 8343 1
7703 8298 1
7703 8317 1
7703 8318 1
7704 7705 1
7704 7706 1
7704 7707 1
7705 7706 1
7705 7707 1
7705 7708 1
7705 7710 1
7705 7730 1
7705 7733 1
7705 7734 1
7706 7707 1
7706 7730 1
7706 7733 1
7706 8321 1
7706 8322 1
7706 8347 1
7707 7708 1
7707 7710 1
7707 8302 1
7707 8321 1
7707 8322 1
7707 8325 1
7708 7709 1
7708 7710 1
7708 7711 1
7709 7710 1
7709 7711 1
7709 7712 1
7709 7714 1
7709 7734 1
7709 7737 1
7709 7738 1
7710 7711 1
7710 7733 1
7710 7734 1
7710 7737 1
7710 8322 1
7710 8325 1
7710 8326 1
7710 8351 1
7711 7712 1
7711 7714 1
7711 8306 1
7711 8325 1
7711 8326 1
7711 8329 1
7712 7713 1
7712 7714 1
7712 7715 1
7713 7714 1
7713 7715 1
7713 7716 1
7713 7738 1
7713 7741 1
7713 7742 1
7714 7715 1
7714 7737 1
7714 7738 1
7714 7741 1
7714 8326 1
7714 8329 1
7714 8330 1
7714 8355 1
7715 7716 1
7715 8329 1
7715 8330 1
7716 7741 1
7716 7742 1
7716 7745 1
7716 8330 1
7716 8359 1
7717 7718 1
7717 7720 1
7717 7750 1
7717 7751 1
7718 7719 1
7718 7720 1
7718 7721 1
7719 7720 1
7719 7721 1
7719 7722 1
7719 7724 1
7719 7751 1
7719 7754 1
7719 7755 1
7720 7721 1
7720 7750 1
7720 7751 1
7720 7754 1
7720 8334 1
7720 8335 1
7720 8336 1
7720 8368 1
7721 7722 1
7721 7724 1
7721 8311 1
7721 8335 1
7721 8336 1
7721 8339 1
7722 7723 1
7722 7724 1
7722 7725 1
7723 7724 1
7723 7725 1
7723 7726 1
7723 7728 1
7723 7755 1
7723 7758 1
7723 7759 1
7724 7725 1
7724 7754 1
7724 7755 1
7724 7758 1
7724 8336 1
7724 8339 1
7724 8340 1
7724 8372 1
7725 7726 1
7725 7728 1
7725 8314 1
7725 8339 1
7725 8340 1
7725 8343 1
7726 7727 1
7726 7728 1
7726 7729 1
7727 7728 1
7727 7729 1
7727 7759 1
7727 7762 1
7728 7729 1
7728 7758 1
7728 7759 1
7728 7762 1
7728 8340 1
7728 8343 1
7728 8344 1
7728 8376 1
7729 8318 1
7729 8343 1
7729 8344 1
7730 7731 1
7730 7732 1
7730 7733 1
7731 7732 1
7731 7733 1
7731 7734 1
7731 7736 1
7731 7763 1
7731 7766 1
7731 7767 1
7732 7733 1
7732 7763 1
7732 7766 1
7732 8347 1
7732 8348 1
7732 8380 1
7733 7734 1
7733 7736 1
7733 8322 1
7733 8347 1
7733 8348 1
7733 8351 1
7734 7735 1
7734 7736 1
7734 7737 1
7735 7736 1
7735 7737 1
7735 7738 1
7735 7740 1
7735 7767 1
7735 7770 1
7735 7771 1
7736 7737 1
7736 7766 1
7736 7767 1
7736 7770 1
7736 8348 1
7736 8351 1
7736 8352 1
7736 8384 1
7737 7738 1
7737 7740 1
7737 8326 1
7737 8351 1
7737 8352 1
7737 8355 1
7738 7739 1
7738 7740 1
7738 7741 1
7739 7740 1
7739 7741 1
7739 7742 1
7739 7744 1
7739 7771 1
7739 7774 1
7739 7775 1
7740 7741 1
7740 7770 1
7740 7771 1
7740 7774 1
7740 8352 1
7740 8355 1
7740 8356 1
7740 8388 1
7741 7742 1
7741 7744 1
7741 8330 1
7741 8355 1
7741 8356 1
7741 8359 1
7742 7743 1
7742 7744 1
7742 7745 1
7743 7744 1
7743 7745 1
7743 7746 1
7743 7775 1
7743 7778 1
7743 7779 1
7744 7745 1
7744 7774 1
7744 7775 1
7744 7778 1
7744 8356 1
7744 8359 1
7744 8360 1
7744 8392 1
7745 7746 1
7745 8359 1
7745 8360 1
7746 7778 1
7746 7779 1
7746 7782 1
7746 8360 1
7746 8396 1
7747 7749 1
7747 7787 1
7747 7790 1
7747 7791 1
7748 7749 1
7748 7750 1
7748 7751 1
7748 7753 1
7748 7791 1
7748 7794 1
7748 7795 1
7749 7750 1
7749 7790 1
7749 7791 1
7749 7794 1
7749 8364 1
7749 8365 1
7749 8408 1
7750 7751 1
7750 7753 1
7750 8334 1
7750 8365 1
7750 8368 1
7751 7752 1
7751 7753 1
7751 7754 1
7752 7753 1
7752 7754 1
7752 7755 1
7752 7757 1
7752 7795 1
7752 7798 1
7752 7799 1
7753 7754 1
7753 7794 1
7753 7795 1
7753 7798 1
7753 8365 1
7753 8368 1
7753 8369 1
7753 8412 1
7754 7755 1
7754 7757 1
7754 8336 1
7754 8368 1
7754 8369 1
7754 8372 1
7755 7756 1
7755 7757 1
7755 7758 1
7756 7757 1
7756 7758 1
7756 7759 1
7756 7761 1
7756 7799 1
7756 7802 1
7756 7803 1
7757 7758 1
7757 7798 1
7757 7799 1
7757 7802 1
7757 8369 1
7757 8372 1
7757 8373 1
7757 8416 1
7758 7759 1
7758 7761 1
7758 8340 1
7758 8372 1
7758 8373 1
7758 8376 1
7759 7760 1
7759 7761 1
7759 7762 1
7760 7761 1
7760 7762 1
7760 7803 1
7760 7806 1
7761 7762 1
7761 7802 1
7761 7803 1
7761 7806 1
7761 8373 1
7761 8376 1
7761 8377 1
7761 8420 1
7762 8344 1
7762 8376 1
7762 8377 1
7763 7764 1
7763 7765 1
7763 7766 1
7764 7765 1
7764 7766 1
7764 7767 1
7764 7769 1
7764 7807 1
7764 7810 1
7764 7811 1
7765 7766 1
7765 7807 1
7765 7810 1
7765 8380 1
7765 8381 1
7765 8424 1
7766 7767 1
7766 7769 1
7766 8348 1
7766 8380 1
7766 8381 1
7766 8384 1
7767 7768 1
7767 7769 1
7767 7770 1
7768 7769 1
7768 7770 1
7768 7771 1
7768 7773 1
7768 7811 1
7768 7814 1
7768 7815 1
7769 7770 1
7769 7810 1
7769 7811 1
7769 7814 1
7769 8381 1
7769 8384 1
7769 8385 1
7769 8428 1
7770 7771 1
7770 7773 1
7770 8352 1
7770 8384 1
7770 8385 1
7770 8388 1
7771 7772 1
7771 7773 1
7771 7774 1
7772 7773 1
7772 7774 1
7772 7775 1
7772 7777 1
7772 7815 1
7772 7818 1
7772 7819 1
7773 7774 1
7773 7814 1
7773 7815 1
7773 7818 1
7773 8385 1
7773 8388 1
7773 8389 1
7773 8432 1
7774 7775 1
7774 7777 1
7774 8356 1
7774 8388 1
7774 8389 1
7774 8392 1
7775 7776 1
7775 7777 1
7775 7778 1
7776 7777 1
7776 7778 1
7776 7779 1
7776 7781 1
7776 7819 1
7776 7822 1
7776 7823 1
7777 7778 1
7777 7818 1
7777 7819 1
7777 7822 1
7777 8389 1
7777 8392 1
7777 8393 1
7777 8436 1
7778 7779 1
7778 7781 1
7778 8360 1
7778 8392 1
7778 8393 1
7778 8396 1
7779 7780 1
7779 7781 1
7779 7782 1
7780 7781 1
7780 7782 1
7780 7784 1
7780 7823 1
7780 7826 1
7780 7827 1
7781 7782 1
7781 7822 1
7781 7823 1
7781 7826 1
7781 8393 1
7781 8396 1
7781 8397 1
7781 8440 1
7782 7784 1
7782 8396 1
7782 8397 1
7783 7784 1
7783 7827 1
7783 7830 1
7783 7831 1
7784 7826 1
7784 7827 1
7784 7830 1
7784 8397 1
7784 8400 1
7784 8444 1
7785 7786 1
7785 7787 1
7785 7789 1
7785 7849 1
7785 7852 1
7785 7853 1
7786 7848 1
7786 7849 1
7786 7852 1
7786 8402 1
7786 8466 1
7787 7788 1
7787 7789 1
7787 7790 1
7788 7789 1
7788 7790 1
7788 7791 1
7788 7793 1
7788 7853 1
7788 7856 1
7788 7857 1
7789 7790 1
7789 7852 1
7789 7853 1
7789 7856 1
7789 8402 1
7789 8404 1
7789 8405 1
7789 8470 1
7790 7791 1
7790 7793 1
7790 8364 1
7790 8404 1
7790 8405 1
7790 8408 1
7791 7792 1
7791 7793 1
7791 7794 1
7792 7793 1
7792 7794 1
7792 7795 1
7792 7797 1
7792 7857 1
7792 7860 1
7792 7861 1
7793 7794 1
7793 7856 1
7793 7857 1
7793 7860 1
7793 8405 1
7793 8408 1
7793 8409 1
7793 8474 1
7794 7795 1
7794 7797 1
7794 8365 1
7794 8408 1
7794 8409 1
7794 8412 1
7795 7796 1
7795 7797 1
7795 7798 1
7796 7797 1
7796 7798 1
7796 7799 1
7796 7801 1
7796 7861 1
7796 7864 1
7796 7865 1
7797 7798 1
7797 7860 1
7797 7861 1
7797 7864 1
7797 8409 1
7797 8412 1
7797 8413 1
7797 8478 1
7798 7799 1
7798 7801 1
7798 8369 1
7798 8412 1
7798 8413 1
7798 8416 1
7799 7800 1
7799 7801 1
7799 7802 1
7800 7801 1
7800 7802 1
7800 7803 1
7800 7805 1
7800 7865 1
7800 7868 1
7800 7869 1
7801 7802 1
7801 7864 1
7801 7865 1
7801 7868 1
7801 8413 1
7801 8416 1
7801 8417 1
7801 8482 1
7802 7803 1
7802 7805 1
7802 8373 1
7802 8416 1
7802 8417 1
7802 8420 1
7803 7804 1
7803 7805 1
7803 7806 1
7804 7805 1
7804 7806 1
7804 7869 1
7804 7872 1
7805 7806 1
7805 7868 1
7805 7869 1
7805 7872 1
7805 8417 1
7805 8420 1
7805 8421 1
7805 8486 1
7806 8377 1
7806 8420 1
7806 8421 1
7807 7808 1
7807 7809 1
7807 7810 1
7808 7809 1
7808 7810 1
7808 7811 1
7808 7813 1
7808 7873 1
7808 7876 1
7808 7877 1
7809 7810 1
7809 7873 1
7809 7876 1
7809 8424 1
7809 8425 1
7809 8490 1
7810 7811 1
7810 7813 1
7810 8381 1
7810 8424 1
7810 8425 1
7810 8428 1
7811 7812 1
7811 7813 1
7811 7814 1
7812 7813 1
7812 7814 1
7812 7815 1
7812 7817 1
7812 7877 1
7812 7880 1
7812 7881 1
7813 7814 1
7813 7876 1
7813 7877 1
7813 7880 1
7813 8425 1
7813 8428 1
7813 8429 1
7813 8494 1
7814 7815 1
7814 7817 1
7814 8385 1
7814 8428 1
7814 8429 1
7814 8432 1
7815 7816 1
7815 7817 1
7815 7818 1
7816 7817 1
7816 7818 1
7816 7819 1
7816 7821 1
7816 7881 1
7816 7884 1
7816 7885 1
7817 7818 1
7817 7880 1
7817 7881 1
7817 7884 1
7817 8429 1
7817 8432 1
7817 8433 1
7817 8498 1
7818 7819 1
7818 7821 1
7818 8389 1
7818 8432 1
7818 8433 1
7818 8436 1
7819 7820 1
7819 7821 1
7819 7822 1
7820 7821 1
7820 7822 1
7820 7823 1
7820 7825 1
7820 7885 1
7820 7888 1
7820 7889 1
7821 7822 1
7821 7884 1
7821 7885 1
7821 7888 1
7821 8433 1
7821 8436 1
7821 8437 1
7821 8502 1
7822 7823 1
7822 7825 1
7822 8393 1
7822 8436 1
7822 8437 1
7822 8440 1
7823 7824 1
7823 7825 1
7823 7826 1
7824 7825 1
7824 7826 1
7824 7827 1
7824 7829 1
7824 7889 1
7824 7892 1
7824 7893 1
7825 7826 1
7825 7888 1
7825 7889 1
7825 7892 1
7825 8437 1
7825 8440 1
7825 8441 1
7825 8506 1
7826 7827 1
7826 7829 1
7826 8397 1
7826 8440 1
7826 8441 1
7826 8444 1
7827 7828 1
7827 7829 1
7827 7830 1
7828 7829 1
7828 7830 1
7828 7831 1
7828 7833 1
7828 7893 1
7828 7896 1
7828 7897 1
7829 7830 1
7829 7892 1
7829 7893 1
7829 7896 1
7829 8441 1
7829 8444 1
7829 8445 1
7829 8510 1
7830 7831 1
7830 7833 1
7830 8400 1
7830 8444 1
7830 8445 1
7830 8448 1
7831 7832 1
7831 7833 1
7831 7834 1
7832 7833 1
7832 7834 1
7832 7835 1
7832 7837 1
7832 7897 1
7832 7900 1
7832 7901 1
7833 7834 1
7833 7896 1
7833 7897 1
7833 7900 1
7833 8445 1
7833 8448 1
7833 8449 1
7833 8514 1
7834 7835 1
7834 7837 1
7834 8448 1
7834 8449 1
7834 8452 1
7835 7836 1
7835 7837 1
7836 7837 1
7836 7839 1
7836 7901 1
7836 7904 1
7836 7905 1
7837 7900 1
7837 7901 1
7837 7904 1
7837 8449 1
7837 8452 1
7837 8453 1
7837 8518 1
7838 7839 1
7838 7841 1
7838 7905 1
7838 7908 1
7838 7909 1
7839 7904 1
7839 7905 1
7839 7908 1
7839 8453 1
7839 8455 1
7839 8522 1
7840 7841 1
7840 7843 1
7840 7909 1
7840 7912 1
7840 7913 1
7841 7908 1
7841 7909 1
7841 7912 1
7841 8455 1
7841 8457 1
7841 8526 1
7842 7843 1
7842 7844 1
7842 7845 1
7842 7847 1
7842 7913 1
7842 7916 1
7842 7917 1
7843 7844 1
7843 7912 1
7843 7913 1
7843 7916 1
7843 8457 1
7843 8459 1
7843 8530 1
7844 7845 1
7844 7847 1
7844 8459 1
7844 8462 1
7845 7846 1
7845 7847 1
7845 7848 1
7846 7847 1
7846 7848 1
7846 7849 1
7846 7851 1
7846 7917 1
7846 7920 1
7846 7921 1
7847 7848 1
7847 7916 1
7847 7917 1
7847 7920 1
7847 8459 1
7847 8462 1
7847 8463 1
7847 8534 1
7848 7849 1
7848 7851 1
7848 8462 1
7848 8463 1
7848 8466 1
7849 7850 1
7849 7851 1
7849 7852 1
7850 7851 1
7850 7852 1
7850 7853 1
7850 7855 1
7850 7921 1
7850 7924 1
7850 7925 1
7851 7852 1
7851 7920 1
7851 7921 1
7851 7924 1
7851 8463 1
7851 8466 1
7851 8467 1
7851 8538 1
7852 7853 1
7852 7855 1
7852 8402 1
7852 8466 1
7852 8467 1
7852 8470 1
7853 7854 1
7853 7855 1
7853 7856 1
7854 7855 1
7854 7856 1
7854 7857 1
7854 7859 1
7854 7925 1
7854 7928 1
7854 7929 1
7855 7856 1
7855 7924 1
7855 7925 1
7855 7928 1
7855 8467 1
7855 8470 1
7855 8471 1
7855 8542 1
7856 7857 1
7856 7859 1
7856 8405 1
7856 8470 1
7856 8471 1
7856 8474 1
7857 7858 1
7857 7859 1
7857 7860 1
7858 7859 1
7858 7860 1
7858 7861 1
7858 7863 1
7858 7929 1
7858 7932 1
7858 7933 1
7859 7860 1
7859 7928 1
7859 7929 1
7859 7932 1
7859 8471 1
7859 8474 1
7859 8475 1
7859 8546 1
7860 7861 1
7860 7863 1
7860 8409 1
7860 8474 1
7860 8475 1
7860 8478 1
7861 7862 1
7861 7863 1
7861 7864 1
7862 7863 1
7862 7864 1
7862 7865 1
7862 7867 1
7862 7933 1
7862 7936 1
7862 7937 1
7863 7864 1
7863 7932 1
7863 7933 1
7863 7936 1
7863 8475 1
7863 8478 1
7863 8479 1
7863 8550 1
7864 7865 1
7864 7867 1
7864 8413 1
7864 8478 1
7864 8479 1
7864 8482 1
7865 7866 1
7865 7867 1
7865 7868 1
7866 7867 1
7866 7868 1
7866 7869 1
7866 7871 1
7866 7937 1
7866 7940 1
7866 7941 1
7867 7868 1
7867 7936 1
7867 7937 1
7867 7940 1
7867 8479 1
7867 8482 1
7867 8483 1
7867 8554 1
7868 7869 1
7868 7871 1
7868 8417 1
7868 8482 1
7868 8483 1
7868 8486 1
7869 7870 1
7869 7871 1
7869 7872 1
7870 7871 1
7870 7872 1
7870 7941 1
7870 7944 1
7871 7872 1
7871 7940 1
7871 7941 1
7871 7944 1
7871 8483 1
7871 8486 1
7871 8487 1
7871 8558 1
7872 8421 1
7872 8486 1
7872 8487 1
7873 7874 1
7873 7875 1
7873 7876 1
7874 7875 1
7874 7876 1
7874 7877 1
7874 7879 1
7875 7876 1
7875 8490 1
7875 8491 1
7876 7877 1
7876 7879 1
7876 8425 1
7876 8490 1
7876 8491 1
7876 8494 1
7877 7878 1
7877 7879 1
7877 7880 1
7878 7879 1
7878 7880 1
7878 7881 1
7878 7883 1
7879 7880 1
7879 8491 1
7879 8494 1
7879 8495 1
7880 7881 1
7880 7883 1
7880 8429 1
7880 8494 1
7880 8495 1
7880 8498 1
7881 7882 1
7881 7883 1
7881 7884 1
7882 7883 1
7882 7884 1
7882 7885 1
7882 7887 1
7883 7884 1
7883 8495 1
7883 8498 1
7883 8499 1
7884 7885 1
7884 7887 1
7884 8433 1
7884 8498 1
7884 8499 1
7884 8502 1
7885 7886 1
7885 7887 1
7885 7888 1
7886 7887 1
7886 7888 1
7886 7889 1
7886 7891 1
7887 7888 1
7887 8499 1
7887 8502 1
7887 8503 1
7888 7889 1
7888 7891 1
7888 8437 1
7888 8502 1
7888 8503 1
7888 8506 1
7889 7890 1
7889 7891 1
7889 7892 1
7890 7891 1
7890 7892 1
7890 7893 1
7890 7895 1
7891 7892 1
7891 8503 1
7891 8506 1
7891 8507 1
7892 7893 1
7892 7895 1
7892 8441 1
7892 8506 1
7892 8507 1
7892 8510 1
7893 7894 1
7893 7895 1
7893 7896 1
7894 7895 1
7894 7896 1
7894 7897 1
7894 7899 1
7895 7896 1
7895 8507 1
7895 8510 1
7895 8511 1
7896 7897 1
7896 7899 1
7896 8445 1
7896 8510 1
7896 8511 1
7896 8514 1
7897 7898 1
7897 7899 1
7897 7900 1
7898 7899 1
7898 7900 1
7898 7901 1
7898 7903 1
7899 7900 1
7899 8511 1
7899 8514 1
7899 8515 1
7900 7901 1
7900 7903 1
7900 8449 1
7900 8514 1
7900 8515 1
7900 8518 1
7901 7902 1
7901 7903 1
7901 7904 1
7902 7903 1
7902 7904 1
7902 7905 1
7902 7907 1
7903 7904 1
7903 8515 1
7903 8518 1
7903 8519 1
7904 7905 1
7904 7907 1
7904 8453 1
7904 8518 1
7904 8519 1
7904 8522 1
7905 7906 1
7905 7907 1
7905 7908 1
7906 7907 1
7906 7908 1
7906 7909 1
7906 7911 1
7907 7908 1
7907 8519 1
7907 8522 1
7907 8523 1
7908 7909 1
7908 7911 1
7908 8455 1
7908 8522 1
7908 8523 1
7908 8526 1
7909 7910 1
7909 7911 1
7909 7912 1
7910 7911 1
7910 7912 1
7910 7913 1
7910 7915 1
7911 7912 1
7911 8523 1
7911 8526 1
7911 8527 1
7912 7913 1
7912 7915 1
7912 8457 1
7912 8526 1
7912 8527 1
7912 8530 1
7913 7914 1
7913 7915 1
7913 7916 1
7914 7915 1
7914 7916 1
7914 7917 1
7914 7919 1
7915 7916 1
7915 8527 1
7915 8530 1
7915 8531 1
7916 7917 1
7916 7919 1
7916 8459 1
7916 8530 1
7916 8531 1
7916 8534 1
7917 7918 1
7917 7919 1
7917 7920 1
7918 7919 1
7918 7920 1
7918 7921 1
7918 7923 1
7919 7920 1
7919 8531 1
7919 8534 1
7919 8535 1
7920 7921 1
7920 7923 1
7920 8463 1
7920 8534 1
7920 8535 1
7920 8538 1
7921 7922 1
7921 7923 1
7921 7924 1
7922 7923 1
7922 7924 1
7922 7925 1
7922 7927 1
7923 7924 1
7923 8535 1
7923 8538 1
7923 8539 1
7924 7925 1
7924 7927 1
7924 8467 1
7924 8538 1
7924 8539 1
7924 8542 1
7925 7926 1
7925 7927 1
7925 7928 1
7926 7927 1
7926 7928 1
7926 7929 1
7926 7931 1
7927 7928 1
7927 8539 1
7927 8542 1
7927 8543 1
7928 7929 1
7928 7931 1
7928 8471 1
7928 8542 1
7928 8543 1
7928 8546 1
7929 7930 1
7929 7931 1
7929 7932 1
7930 7931 1
7930 7932 1
7930 7933 1
7930 7935 1
7931 7932 1
7931 8543 1
7931 8546 1
7931 8547 1
7932 7933 1
7932 7935 1
7932 8475 1
7932 8546 1
7932 8547 1
7932 8550 1
7933 7934 1
7933 7935 1
7933 7936 1
7934 7935 1
7934 7936 1
7934 7937 1
7934 7939 1
7935 7936 1
7935 8547 1
7935 8550 1
7935 8551 1
7936 7937 1
7936 7939 1
7936 8479 1
7936 8550 1
7936 8551 1
7936 8554 1
7937 7938 1
7937 7939 1
7937 7940 1
7938 7939 1
7938 7940 1
7938 7941 1
7938 7943 1
7939 7940 1
7939 8551 1
7939 8554 1
7939 8555 1
7940 7941 1
7940 7943 1
7940 8483 1
7940 8554 1
7940 8555 1
7940 8558 1
7941 7942 1
7941 7943 1
7941 7944 1
7942 7943 1
7942 7944 1
7943 7944 1
7943 8555 1
7943 8558 1
7943 8559 1
7944 8487 1
7944 8558 1
7944 8559 1
7945 7946 1
7945 7947 1
7945 7948 1
7946 7947 1
7946 7948 1
7946 7949 1
7946 7951 1
7946 8017 1
7946 8020 1
7946 8021 1
7947 7948 1
7947 8017 1
7947 8020 1
7947 8562 1
7947 8563 1
7947 8634 1
7948 7949 1
7948 7951 1
7948 8562 1
7948 8563 1
7948 8566 1
7949 7950 1
7949 7951 1
7949 7952 1
7950 7951 1
7950 7952 1
7950 7953 1
7950 7955 1
7950 8021 1
7950 8024 1
7950 8025 1
7951 7952 1
7951 8020 1
7951 8021 1
7951 8024 1
7951 8563 1
7951 8566 1
7951 8567 1
7951 8638 1
7952 7953 1
7952 7955 1
7952 8566 1
7952 8567 1
7952 8570 1
7953 7954 1
7953 7955 1
7953 7956 1
7954 7955 1
7954 7956 1
7954 7957 1
7954 7959 1
7954 8025 1
7954 8028 1
7954 8029 1
7955 7956 1
7955 8024 1
7955 8025 1
7955 8028 1
7955 8567 1
7955 8570 1
7955 8571 1
7955 8642 1
7956 7957 1
7956 7959 1
7956 8570 1
7956 8571 1
7956 8574 1
7957 7958 1
7957 7959 1
7957 7960 1
7958 7959 1
7958 7960 1
7958 7961 1
7958 7963 1
7958 8029 1
7958 8032 1
7958 8033 1
7959 7960 1
7959 8028 1
7959 8029 1
7959 8032 1
7959 8571 1
7959 8574 1
7959 8575 1
7959 8646 1
7960 7961 1
7960 7963 1
7960 8574 1
7960 8575 1
7960 8578 1
7961 7962 1
7961 7963 1
7961 7964 1
7962 7963 1
7962 7964 1
7962 7965 1
7962 7967 1
7962 8033 1
7962 8036 1
7962 8037 1
7963 7964 1
7963 8032 1
7963 8033 1
7963 8036 1
7963 8575 1
7963 8578 1
7963 8579 1
7963 8650 1
7964 7965 1
7964 7967 1
7964 8578 1
7964 8579 1
7964 8582 1
7965 7966 1
7965 7967 1
7965 7968 1
7966 7967 1
7966 7968 1
7966 7969 1
7966 7971 1
7966 8037 1
7966 8040 1
7966 8041 1
7967 7968 1
7967 8036 1
7967 8037 1
7967 8040 1
7967 8579 1
7967 8582 1
7967 8583 1
7967 8654 1
7968 7969 1
7968 7971 1
7968 8582 1
7968 8583 1
7968 8586 1
7969 7970 1
7969 7971 1
7969 7972 1
7970 7971 1
7970 7972 1
7970 7973 1
7970 7975 1
7970 8041 1
7970 8044 1
7970 8045 1
7971 7972 1
7971 8040 1
7971 8041 1
7971 8044 1
7971 8583 1
7971 8586 1
7971 8587 1
7971 8658 1
7972 7973 1
7972 7975 1
7972 8586 1
7972 8587 1
7972 8590 1
7973 7974 1
7973 7975 1
7973 7976 1
7974 7975 1
7974 7976 1
7974 7977 1
7974 7979 1
7974 8045 1
7974 8048 1
7974 8049 1
7975 7976 1
7975 8044 1
7975 8045 1
7975 8048 1
7975 8587 1
7975 8590 1
7975 8591 1
7975 8662 1
7976 7977 1
7976 7979 1
7976 8590 1
7976 8591 1
7976 8594 1
7977 7978 1
7977 7979 1
7977 7980 1
7978 7979 1
7978 7980 1
7978 7981 1
7978 7983 1
7978 8049 1
7978 8051 1
7978 8052 1
7979 7980 1
7979 8048 1
7979 8049 1
7979 8051 1
7979 8591 1
7979 8594 1
7979 8595 1
7979 8666 1
7980 7981 1
7980 7983 1
7980 8594 1
7980 8595 1
7980 8598 1
7981 7982 1
7981 7983 1
7981 7984 1
7982 7983 1
7982 7984 1
7982 7985 1
7982 7987 1
7982 8052 1
7982 8053 1
7982 8054 1
7983 7984 1
7983 8051 1
7983 8052 1
7983 8053 1
7983 8595 1
7983 8598 1
7983 8599 1
7983 8669 1
7984 7985 1
7984 7987 1
7984 8598 1
7984 8599 1
7984 8602 1
7985 7986 1
7985 7987 1
7985 7988 1
7986 7987 1
7986 7988 1
7986 7989 1
7986 7991 1
7986 8054 1
7986 8057 1
7986 8058 1
7987 7988 1
7987 8053 1
7987 8054 1
7987 8057 1
7987 8599 1
7987 8602 1
7987 8603 1
7987 8671 1
7988 7989 1
7988 7991 1
7988 8602 1
7988 8603 1
7988 8606 1
7989 7990 1
7989 7991 1
7989 7992 1
7990 7991 1
7990 7992 1
7990 7993 1
7990 7995 1
7990 8058 1
7990 8061 1
7990 8062 1
7991 7992 1
7991 8057 1
7991 8058 1
7991 8061 1
7991 8603 1
7991 8606 1
7991 8607 1
7991 8675 1
7992 7993 1
7992 7995 1
7992 8606 1
7992 8607 1
7992 8610 1
7993 7994 1
7993 7995 1
7993 7996 1
7994 7995 1
7994 7996 1
7994 7997 1
7994 7999 1
7994 8062 1
7994 8065 1
7994 8066 1
7995 7996 1
7995 8061 1
7995 8062 1
7995 8065 1
7995 8607 1
7995 8610 1
7995 8611 1
7995 8679 1
7996 7997 1
7996 7999 1
7996 8610 1
7996 8611 1
7996 8614 1
7997 7998 1
7997 7999 1
7997 8000 1
7998 7999 1
7998 8000 1
7998 8001 1
7998 8003 1
7998 8066 1
7998 8069 1
7998 8070 1
7999 8000 1
7999 8065 1
7999 8066 1
7999 8069 1
7999 8611 1
7999 8614 1
7999 8615 1
7999 8683 1
8000 8001 1
8000 8003 1
8000 8614 1
8000 8615 1
8000 8618 1
8001 8002 1
8001 8003 1
8001 8004 1
8002 8003 1
8002 8004 1
8002 8005 1
8002 8007 1
8002 8070 1
8002 8073 1
8002 8074 1
8003 8004 1
8003 8069 1
8003 8070 1
8003 8073 1
8003 8615 1
8003 8618 1
8003 8619 1
8003 8687 1
8004 8005 1
8004 8007 1
8004 8618 1
8004 8619 1
8004 8622 1
8005 8006 1
8005 8007 1
8005 8008 1
8006 8007 1
8006 8008 1
8006 8009 1
8006 8011 1
8006 8074 1
8006 8077 1
8006 8078 1
8007 8008 1
8007 8073 1
8007 8074 1
8007 8077 1
8007 8619 1
8007 8622 1
8007 8623 1
8007 8691 1
8008 8009 1
8008 8011 1
8008 8622 1
8008 8623 1
8008 8626 1
8009 8010 1
8009 8011 1
8009 8012 1
8010 8011 1
8010 8012 1
8010 8013 1
8010 8015 1
8010 8078 1
8010 8081 1
8010 8082 1
8011 8012 1
8011 8077 1
8011 8078 1
8011 8081 1
8011 8623 1
8011 8626 1
8011 8627 1
8011 8695 1
8012 8013 1
8012 8015 1
8012 8626 1
8012 8627 1
8012 8630 1
8013 8014 1
8013 8015 1
8013 8016 1
8014 8015 1
8014 8016 1
8014 8082 1
8014 8085 1
8015 8016 1
8015 8081 1
8015 8082 1
8015 8085 1
8015 8627 1
8015 8630 1
8015 8631 1
8015 8699 1
8016 8630 1
8016 8631 1
8017 8018 1
8017 8019 1
8017 8020 1
8018 8019 1
8018 8020 1
8018 8021 1
8018 8023 1
8018 8086 1
8018 8089 1
8018 8090 1
8019 8020 1
8019 8086 1
8019 8089 1
8019 8634 1
8019 8635 1
8019 8703 1
8020 8021 1
8020 8023 1
8020 8563 1
8020 8634 1
8020 8635 1
8020 8638 1
8021 8022 1
8021 8023 1
8021 8024 1
8022 8023 1
8022 8024 1
8022 8025 1
8022 8027 1
8022 8090 1
8022 8093 1
8022 8094 1
8023 8024 1
8023 8089 1
8023 8090 1
8023 8093 1
8023 8635 1
8023 8638 1
8023 8639 1
8023 8707 1
8024 8025 1
8024 8027 1
8024 8567 1
8024 8638 1
8024 8639 1
8024 8642 1
8025 8026 1
8025 8027 1
8025 8028 1
8026 8027 1
8026 8028 1
8026 8029 1
8026 8031 1
8026 8094 1
8026 8097 1
8026 8098 1
8027 8028 1
8027 8093 1
8027 8094 1
8027 8097 1
8027 8639 1
8027 8642 1
8027 8643 1
8027 8711 1
8028 8029 1
8028 8031 1
8028 8571 1
8028 8642 1
8028 8643 1
8028 8646 1
8029 8030 1
8029 8031 1
8029 8032 1
8030 8031 1
8030 8032 1
8030 8033 1
8030 8035 1
8030 8098 1
8030 8101 1
8030 8102 1
8031 8032 1
8031 8097 1
8031 8098 1
8031 8101 1
8031 8643 1
8031 8646 1
8031 8647 1
8031 8715 1
8032 8033 1
8032 8035 1
8032 8575 1
8032 8646 1
8032 8647 1
8032 8650 1
8033 8034 1
8033 8035 1
8033 8036 1
8034 8035 1
8034 8036 1
8034 8037 1
8034 8039 1
8034 8102 1
8034 8105 1
8034 8106 1
8035 8036 1
8035 8101 1
8035 8102 1
8035 8105 1
8035 8647 1
8035 8650 1
8035 8651 1
8035 8719 1
8036 8037 1
8036 8039 1
8036 8579 1
8036 8650 1
8036 8651 1
8036 8654 1
8037 8038 1
8037 8039 1
8037 8040 1
8038 8039 1
8038 8040 1
8038 8041 1
8038 8043 1
8038 8106 1
8038 8108 1
8038 8109 1
8039 8040 1
8039 8105 1
8039 8106 1
8039 8108 1
8039 8651 1
8039 8654 1
8039 8655 1
8039 8723 1
8040 8041 1
8040 8043 1
8040 8583 1
8040 8654 1
8040 8655 1
8040 8658 1
8041 8042 1
8041 8043 1
8041 8044 1
8042 8043 1
8042 8044 1
8042 8045 1
8042 8047 1
8042 8109 1
8043 8044 1
8043 8108 1
8043 8109 1
8043 8655 1
8043 8658 1
8043 8659 1
8043 8726 1
8044 8045 1
8044 8047 1
8044 8587 1
8044 8658 1
8044 8659 1
8044 8662 1
8045 8046 1
8045 8047 1
8045 8048 1
8046 8047 1
8046 8048 1
8046 8049 1
8046 8050 1
8047 8048 1
8047 8659 1
8047 8662 1
8047 8663 1
8048 8049 1
8048 8050 1
8048 8591 1
8048 8662 1
8048 8663 1
8048 8666 1
8049 8050 1
8049 8051 1
8050 8051 1
8050 8663 1
8050 8666 1
8051 8052 1
8051 8595 1
8051 8666 1
8051 8669 1
8052 8053 1
8053 8054 1
8053 8056 1
8053 8599 1
8053 8669 1
8053 8671 1
8054 8055 1
8054 8056 1
8054 8057 1
8055 8056 1
8055 8057 1
8055 8058 1
8055 8060 1
8056 8057 1
8056 8671 1
8056 8672 1
8057 8058 1
8057 8060 1
8057 8603 1
8057 8671 1
8057 8672 1
8057 8675 1
8058 8059 1
8058 8060 1
8058 8061 1
8059 8060 1
8059 8061 1
8059 8062 1
8059 8064 1
8059 8110 1
8060 8061 1
8060 8672 1
8060 8675 1
8060 8676 1
8061 8062 1
8061 8064 1
8061 8607 1
8061 8675 1
8061 8676 1
8061 8679 1
8062 8063 1
8062 8064 1
8062 8065 1
8063 8064 1
8063 8065 1
8063 8066 1
8063 8068 1
8063 8110 1
8063 8111 1
8063 8112 1
8064 8065 1
8064 8110 1
8064 8111 1
8064 8676 1
8064 8679 1
8064 8680 1
8064 8727 1
8065 8066 1
8065 8068 1
8065 8611 1
8065 8679 1
8065 8680 1
8065 8683 1
8066 8067 1
8066 8068 1
8066 8069 1
8067 8068 1
8067 8069 1
8067 8070 1
8067 8072 1
8067 8112 1
8067 8115 1
8067 8116 1
8068 8069 1
8068 8111 1
8068 8112 1
8068 8115 1
8068 8680 1
8068 8683 1
8068 8684 1
8068 8729 1
8069 8070 1
8069 8072 1
8069 8615 1
8069 8683 1
8069 8684 1
8069 8687 1
8070 8071 1
8070 8072 1
8070 8073 1
8071 8072 1
8071 8073 1
8071 8074 1
8071 8076 1
8071 8116 1
8071 8119 1
8071 8120 1
8072 8073 1
8072 8115 1
8072 8116 1
8072 8119 1
8072 8684 1
8072 8687 1
8072 8688 1
8072 8733 1
8073 8074 1
8073 8076 1
8073 8619 1
8073 8687 1
8073 8688 1
8073 8691 1
8074 8075 1
8074 8076 1
8074 8077 1
8075 8076 1
8075 8077 1
8075 8078 1
8075 8080 1
8075 8120 1
8075 8123 1
8075 8124 1
8076 8077 1
8076 8119 1
8076 8120 1
8076 8123 1
8076 8688 1
8076 8691 1
8076 8692 1
8076 8737 1
8077 8078 1
8077 8080 1
8077 8623 1
8077 8691 1
8077 8692 1
8077 8695 1
8078 8079 1
8078 8080 1
8078 8081 1
8079 8080 1
8079 8081 1
8079 8082 1
8079 8084 1
8079 8124 1
8079 8127 1
8079 8128 1
8080 8081 1
8080 8123 1
8080 8124 1
8080 8127 1
8080 8692 1
8080 8695 1
8080 8696 1
8080 8741 1
8081 8082 1
8081 8084 1
8081 8627 1
8081 8695 1
8081 8696 1
8081 8699 1
8082 8083 1
8082 8084 1
8082 8085 1
8083 8084 1
8083 8085 1
8083 8128 1
8083 8131 1
8084 8085 1
8084 8127 1
8084 8128 1
8084 8131 1
8084 8696 1
8084 8699 1
8084 8700 1
8084 8745 1
8085 8631 1
8085 8699 1
8085 8700 1
8086 8087 1
8086 8088 1
8086 8089 1
8087 8088 1
8087 8089 1
8087 8090 1
8087 8092 1
8087 8132 1
8087 8135 1
8087 8136 1
8088 8089 1
8088 8132 1
8088 8135 1
8088 8703 1
8088 8704 1
8088 8749 1
8089 8090 1
8089 8092 1
8089 8635 1
8089 8703 1
8089 8704 1
8089 8707 1
8090 8091 1
8090 8092 1
8090 8093 1
8091 8092 1
8091 8093 1
8091 8094 1
8091 8096 1
8091 8136 1
8091 8139 1
8091 8140 1
8092 8093 1
8092 8135 1
8092 8136 1
8092 8139 1
8092 8704 1
8092 8707 1
8092 8708 1
8092 8753 1
8093 8094 1
8093 8096 1
8093 8639 1
8093 8707 1
8093 8708 1
8093 8711 1
8094 8095 1
8094 8096 1
8094 8097 1
8095 8096 1
8095 8097 1
8095 8098 1
8095 8100 1
8095 8140 1
8095 8143 1
8095 8144 1
8096 8097 1
8096 8139 1
8096 8140 1
8096 8143 1
8096 8708 1
8096 8711 1
8096 8712 1
8096 8757 1
8097 8098 1
8097 8100 1
8097 8643 1
8097 8711 1
8097 8712 1
8097 8715 1
8098 8099 1
8098 8100 1
8098 8101 1
8099 8100 1
8099 8101 1
8099 8102 1
8099 8104 1
8099 8144 1
8099 8147 1
8099 8148 1
8100 8101 1
8100 8143 1
8100 8144 1
8100 8147 1
8100 8712 1
8100 8715 1
8100 8716 1
8100 8761 1
8101 8102 1
8101 8104 1
8101 8647 1
8101 8715 1
8101 8716 1
8101 8719 1
8102 8103 1
8102 8104 1
8102 8105 1
8103 8104 1
8103 8105 1
8103 8106 1
8103 8107 1
8103 8148 1
8104 8105 1
8104 8147 1
8104 8148 1
8104 8716 1
8104 8719 1
8104 8720 1
8104 8765 1
8105 8106 1
8105 8107 1
8105 8651 1
8105 8719 1
8105 8720 1
8105 8723 1
8106 8107 1
8106 8108 1
8107 8108 1
8107 8720 1
8107 8723 1
8108 8109 1
8108 8655 1
8108 8723 1
8108 8726 1
8110 8111 1
8111 8112 1
8111 8114 1
8111 8680 1
8111 8727 1
8111 8729 1
8112 8113 1
8112 8114 1
8112 8115 1
8113 8114 1
8113 8115 1
8113 8116 1
8113 8118 1
8113 8149 1
8113 8150 1
8114 8115 1
8114 8149 1
8114 8729 1
8114 8730 1
8115 8116 1
8115 8118 1
8115 8684 1
8115 8729 1
8115 8730 1
8115 8733 1
8116 8117 1
8116 8118 1
8116 8119 1
8117 8118 1
8117 8119 1
8117 8120 1
8117 8122 1
8117 8150 1
8117 8153 1
8117 8154 1
8118 8119 1
8118 8149 1
8118 8150 1
8118 8153 1
8118 8730 1
8118 8733 1
8118 8734 1
8118 8767 1
8119 8120 1
8119 8122 1
8119 8688 1
8119 8733 1
8119 8734 1
8119 8737 1
8120 8121 1
8120 8122 1
8120 8123 1
8121 8122 1
8121 8123 1
8121 8124 1
8121 8126 1
8121 8154 1
8121 8157 1
8121 8158 1
8122 8123 1
8122 8153 1
8122 8154 1
8122 8157 1
8122 8734 1
8122 8737 1
8122 8738 1
8122 8771 1
8123 8124 1
8123 8126 1
8123 8692 1
8123 8737 1
8123 8738 1
8123 8741 1
8124 8125 1
8124 8126 1
8124 8127 1
8125 8126 1
8125 8127 1
8125 8128 1
8125 8130 1
8125 8158 1
8125 8161 1
8125 8162 1
8126 8127 1
8126 8157 1
8126 8158 1
8126 8161 1
8126 8738 1
8126 8741 1
8126 8742 1
8126 8775 1
8127 8128 1
8127 8130 1
8127 8696 1
8127 8741 1
8127 8742 1
8127 8745 1
8128 8129 1
8128 8130 1
8128 8131 1
8129 8130 1
8129 8131 1
8129 8162 1
8129 8165 1
8130 8131 1
8130 8161 1
8130 8162 1
8130 8165 1
8130 8742 1
8130 8745 1
8130 8746 1
8130 8779 1
8131 8700 1
8131 8745 1
8131 8746 1
8132 8133 1
8132 8134 1
8132 8135 1
8133 8134 1
8133 8135 1
8133 8136 1
8133 8138 1
8133 8166 1
8133 8169 1
8133 8170 1
8134 8135 1
8134 8166 1
8134 8169 1
8134 8749 1
8134 8750 1
8134 8783 1
8135 8136 1
8135 8138 1
8135 8704 1
8135 8749 1
8135 8750 1
8135 8753 1
8136 8137 1
8136 8138 1
8136 8139 1
8137 8138 1
8137 8139 1
8137 8140 1
8137 8142 1
8137 8170 1
8137 8173 1
8137 8174 1
8138 8139 1
8138 8169 1
8138 8170 1
8138 8173 1
8138 8750 1
8138 8753 1
8138 8754 1
8138 8787 1
8139 8140 1
8139 8142 1
8139 8708 1
8139 8753 1
8139 8754 1
8139 8757 1
8140 8141 1
8140 8142 1
8140 8143 1
8141 8142 1
8141 8143 1
8141 8144 1
8141 8146 1
8141 8174 1
8141 8177 1
8141 8178 1
8142 8143 1
8142 8173 1
8142 8174 1
8142 8177 1
8142 8754 1
8142 8757 1
8142 8758 1
8142 8791 1
8143 8144 1
8143 8146 1
8143 8712 1
8143 8757 1
8143 8758 1
8143 8761 1
8144 8145 1
8144 8146 1
8144 8147 1
8145 8146 1
8145 8147 1
8145 8148 1
8145 8178 1
8146 8147 1
8146 8177 1
8146 8178 1
8146 8758 1
8146 8761 1
8146 8762 1
8146 8795 1
8147 8148 1
8147 8716 1
8147 8761 1
8147 8762 1
8147 8765 1
8149 8150 1
8149 8152 1
8149 8730 1
8149 8767 1
8150 8151 1
8150 8152 1
8150 8153 1
8151 8152 1
8151 8153 1
8151 8154 1
8151 8156 1
8151 8179 1
8151 8180 1
8152 8153 1
8152 8179 1
8152 8767 1
8152 8768 1
8153 8154 1
8153 8156 1
8153 8734 1
8153 8767 1
8153 8768 1
8153 8771 1
8154 8155 1
8154 8156 1
8154 8157 1
8155 8156 1
8155 8157 1
8155 8158 1
8155 8160 1
8155 8180 1
8155 8183 1
8155 8184 1
8156 8157 1
8156 8179 1
8156 8180 1
8156 8183 1
8156 8768 1
8156 8771 1
8156 8772 1
8156 8797 1
8157 8158 1
8157 8160 1
8157 8738 1
8157 8771 1
8157 8772 1
8157 8775 1
8158 8159 1
8158 8160 1
8158 8161 1
8159 8160 1
8159 8161 1
8159 8162 1
8159 8164 1
8159 8184 1
8159 8187 1
8159 8188 1
8160 8161 1
8160 8183 1
8160 8184 1
8160 8187 1
8160 8772 1
8160 8775 1
8160 8776 1
8160 8801 1
8161 8162 1
8161 8164 1
8161 8742 1
8161 8775 1
8161 8776 1
8161 8779 1
8162 8163 1
8162 8164 1
8162 8165 1
8163 8164 1
8163 8165 1
8163 8188 1
8163 8191 1
8164 8165 1
8164 8187 1
8164 8188 1
8164 8191 1
8164 8776 1
8164 8779 1
8164 8780 1
8164 8805 1
8165 8746 1
8165 8779 1
8165 8780 1
8166 8167 1
8166 8168 1
8166 8169 1
8167 8168 1
8167 8169 1
8167 8170 1
8167 8172 1
8167 8192 1
8167 8195 1
8167 8196 1
8168 8169 1
8168 8192 1
8168 8195 1
8168 8783 1
8168 8784 1
8168 8809 1
8169 8170 1
8169 8172 1
8169 8750 1
8169 8783 1
8169 8784 1
8169 8787 1
8170 8171 1
8170 8172 1
8170 8173 1
8171 8172 1
8171 8173 1
8171 8174 1
8171 8176 1
8171 8196 1
8171 8199 1
8171 8200 1
8172 8173 1
8172 8195 1
8172 8196 1
8172 8199 1
8172 8784 1
8172 8787 1
8172 8788 1
8172 8813 1
8173 8174 1
8173 8176 1
8173 8754 1
8173 8787 1
8173 8788 1
8173 8791 1
8174 8175 1
8174 8176 1
8174 8177 1
8175 8176 1
8175 8177 1
8175 8178 1
8175 8200 1
8175 8202 1
8176 8177 1
8176 8199 1
8176 8200 1
8176 8202 1
8176 8788 1
8176 8791 1
8176 8792 1
8176 8817 1
8177 8178 1
8177 8758 1
8177 8791 1
8177 8792 1
8177 8795 1
8179 8180 1
8179 8182 1
8179 8768 1
8179 8797 1
8180 8181 1
8180 8182 1
8180 8183 1
8181 8182 1
8181 8183 1
8181 8184 1
8181 8186 1
8181 8204 1
8181 8205 1
8182 8183 1
8182 8204 1
8182 8797 1
8182 8798 1
8183 8184 1
8183 8186 1
8183 8772 1
8183 8797 1
8183 8798 1
8183 8801 1
8184 8185 1
8184 8186 1
8184 8187 1
8185 8186 1
8185 8187 1
8185 8188 1
8185 8190 1
8185 8205 1
8185 8208 1
8185 8209 1
8186 8187 1
8186 8204 1
8186 8205 1
8186 8208 1
8186 8798 1
8186 8801 1
8186 8802 1
8186 8822 1
8187 8188 1
8187 8190 1
8187 8776 1
8187 8801 1
8187 8802 1
8187 8805 1
8188 8189 1
8188 8190 1
8188 8191 1
8189 8190 1
8189 8191 1
8189 8209 1
8189 8212 1
8190 8191 1
8190 8208 1
8190 8209 1
8190 8212 1
8190 8802 1
8190 8805 1
8190 8806 1
8190 8826 1
8191 8780 1
8191 8805 1
8191 8806 1
8192 8193 1
8192 8194 1
8192 8195 1
8193 8194 1
8193 8195 1
8193 8196 1
8193 8198 1
8193 8213 1
8193 8216 1
8193 8217 1
8194 8195 1
8194 8213 1
8194 8216 1
8194 8809 1
8194 8810 1
8194 8830 1
8195 8196 1
8195 8198 1
8195 8784 1
8195 8809 1
8195 8810 1
8195 8813 1
8196 8197 1
8196 8198 1
8196 8199 1
8197 8198 1
8197 8199 1
8197 8200 1
8197 8201 1
8197 8217 1
8197 8220 1
8197 8221 1
8198 8199 1
8198 8216 1
8198 8217 1
8198 8220 1
8198 8810 1
8198 8813 1
8198 8814 1
8198 8834 1
8199 8200 1
8199 8201 1
8199 8788 1
8199 8813 1
8199 8814 1
8199 8817 1
8200 8201 1
8200 8202 1
8201 8202 1
8201 8220 1
8201 8221 1
8201 8814 1
8201 8817 1
8201 8838 1
8202 8792 1
8202 8817 1
8203 8204 1
8203 8205 1
8203 8207 1
8203 8222 1
8204 8205 1
8204 8207 1
8204 8798 1
8204 8820 1
8204 8822 1
8205 8206 1
8205 8207 1
8205 8208 1
8206 8207 1
8206 8208 1
8206 8209 1
8206 8211 1
8206 8222 1
8206 8225 1
8206 8226 1
8207 8208 1
8207 8222 1
8207 8225 1
8207 8820 1
8207 8822 1
8207 8823 1
8207 8839 1
8208 8209 1
8208 8211 1
8208 8802 1
8208 8822 1
8208 8823 1
8208 8826 1
8209 8210 1
8209 8211 1
8209 8212 1
8210 8211 1
8210 8212 1
8210 8226 1
8210 8229 1
8211 8212 1
8211 8225 1
8211 8226 1
8211 8229 1
8211 8823 1
8211 8826 1
8211 8827 1
8211 8843 1
8212 8806 1
8212 8826 1
8212 8827 1
8213 8214 1
8213 8215 1
8213 8216 1
8214 8215 1
8214 8216 1
8214 8217 1
8214 8219 1
8214 8230 1
8214 8233 1
8214 8234 1
8215 8216 1
8215 8230 1
8215 8233 1
8215 8830 1
8215 8831 1
8215 8847 1
8216 8217 1
8216 8219 1
8216 8810 1
8216 8830 1
8216 8831 1
8216 8834 1
8217 8218 1
8217 8219 1
8217 8220 1
8218 8219 1
8218 8220 1
8218 8221 1
8218 8234 1
8218 8237 1
8219 8220 1
8219 8233 1
8219 8234 1
8219 8237 1
8219 8831 1
8219 8834 1
8219 8835 1
8219 8851 1
8220 8221 1
8220 8814 1
8220 8834 1
8220 8835 1
8220 8838 1
8222 8223 1
8222 8224 1
8222 8225 1
8223 8224 1
8223 8225 1
8223 8226 1
8223 8228 1
8223 8238 1
8223 8240 1
8223 8241 1
8224 8225 1
8224 8238 1
8224 8240 1
8224 8839 1
8224 8840 1
8224 8855 1
8225 8226 1
8225 8228 1
8225 8823 1
8225 8839 1
8225 8840 1
8225 8843 1
8226 8227 1
8226 8228 1
8226 8229 1
8227 8228 1
8227 8229 1
8227 8241 1
8227 8244 1
8228 8229 1
8228 8240 1
8228 8241 1
8228 8244 1
8228 8840 1
8228 8843 1
8228 8844 1
8228 8858 1
8229 8827 1
8229 8843 1
8229 8844 1
8230 8231 1
8230 8232 1
8230 8233 1
8231 8232 1
8231 8233 1
8231 8234 1
8231 8236 1
8231 8245 1
8231 8248 1
8231 8249 1
8232 8233 1
8232 8245 1
8232 8248 1
8232 8847 1
8232 8848 1
8232 8862 1
8233 8234 1
8233 8236 1
8233 8831 1
8233 8847 1
8233 8848 1
8233 8851 1
8234 8235 1
8234 8236 1
8234 8237 1
8235 8236 1
8235 8237 1
8235 8249 1
8235 8251 1
8236 8237 1
8236 8248 1
8236 8249 1
8236 8251 1
8236 8848 1
8236 8851 1
8236 8852 1
8236 8866 1
8237 8835 1
8237 8851 1
8237 8852 1
8238 8239 1
8238 8240 1
8239 8240 1
8239 8241 1
8239 8243 1
8239 8253 1
8239 8254 1
8240 8241 1
8240 8243 1
8240 8840 1
8240 8855 1
8240 8856 1
8240 8858 1
8241 8242 1
8241 8243 1
8241 8244 1
8242 8243 1
8242 8244 1
8242 8254 1
8242 8257 1
8243 8244 1
8243 8253 1
8243 8254 1
8243 8257 1
8243 8856 1
8243 8858 1
8243 8859 1
8243 8871 1
8244 8844 1
8244 8858 1
8244 8859 1
8245 8246 1
8245 8247 1
8245 8248 1
8246 8247 1
8246 8248 1
8246 8249 1
8246 8250 1
8246 8258 1
8246 8261 1
8246 8262 1
8247 8248 1
8247 8258 1
8247 8261 1
8247 8862 1
8247 8863 1
8247 8875 1
8248 8249 1
8248 8250 1
8248 8848 1
8248 8862 1
8248 8863 1
8248 8866 1
8249 8250 1
8249 8251 1
8250 8251 1
8250 8261 1
8250 8262 1
8250 8863 1
8250 8866 1
8250 8879 1
8251 8852 1
8251 8866 1
8252 8253 1
8252 8254 1
8252 8256 1
8252 8265 1
8252 8266 1
8253 8254 1
8253 8256 1
8253 8856 1
8253 8869 1
8253 8871 1
8254 8255 1
8254 8256 1
8254 8257 1
8255 8256 1
8255 8257 1
8255 8266 1
8255 8269 1
8256 8257 1
8256 8265 1
8256 8266 1
8256 8269 1
8256 8869 1
8256 8871 1
8256 8872 1
8256 8883 1
8257 8859 1
8257 8871 1
8257 8872 1
8258 8259 1
8258 8260 1
8258 8261 1
8259 8260 1
8259 8261 1
8259 8262 1
8259 8263 1
8259 8270 1
8259 8273 1
8259 8274 1
8260 8261 1
8260 8270 1
8260 8273 1
8260 8875 1
8260 8876 1
8260 8887 1
8261 8262 1
8261 8263 1
8261 8863 1
8261 8875 1
8261 8876 1
8261 8879 1
8262 8263 1
8263 8273 1
8263 8274 1
8263 8277 1
8263 8876 1
8263 8879 1
8263 8891 1
8264 8265 1
8264 8266 1
8264 8268 1
8264 8280 1
8264 8281 1
8265 8266 1
8265 8268 1
8265 8869 1
8265 8881 1
8265 8883 1
8266 8267 1
8266 8268 1
8266 8269 1
8267 8268 1
8267 8269 1
8267 8281 1
8267 8284 1
8268 8269 1
8268 8280 1
8268 8281 1
8268 8284 1
8268 8881 1
8268 8883 1
8268 8884 1
8268 8898 1
8269 8872 1
8269 8883 1
8269 8884 1
8270 8271 1
8270 8272 1
8270 8273 1
8271 8272 1
8271 8273 1
8271 8274 1
8271 8276 1
8271 8285 1
8271 8288 1
8271 8289 1
8272 8273 1
8272 8285 1
8272 8288 1
8272 8887 1
8272 8888 1
8272 8902 1
8273 8274 1
8273 8276 1
8273 8876 1
8273 8887 1
8273 8888 1
8273 8891 1
8274 8275 1
8274 8276 1
8274 8277 1
8275 8276 1
8275 8277 1
8275 8289 1
8275 8292 1
8276 8277 1
8276 8288 1
8276 8289 1
8276 8292 1
8276 8888 1
8276 8891 1
8276 8892 1
8276 8906 1
8277 8891 1
8277 8892 1
8278 8279 1
8278 8280 1
8278 8281 1
8278 8283 1
8278 8293 1
8278 8296 1
8278 8297 1
8279 8280 1
8279 8293 1
8279 8296 1
8279 8895 1
8279 8910 1
8280 8281 1
8280 8283 1
8280 8881 1
8280 8895 1
8280 8898 1
8281 8282 1
8281 8283 1
8281 8284 1
8282 8283 1
8282 8284 1
8282 8297 1
8282 8300 1
8283 8284 1
8283 8296 1
8283 8297 1
8283 8300 1
8283 8895 1
8283 8898 1
8283 8899 1
8283 8914 1
8284 8884 1
8284 8898 1
8284 8899 1
8285 8286 1
8285 8287 1
8285 8288 1
8286 8287 1
8286 8288 1
8286 8289 1
8286 8291 1
8286 8301 1
8286 8304 1
8286 8305 1
8287 8288 1
8287 8301 1
8287 8304 1
8287 8902 1
8287 8903 1
8287 8918 1
8288 8289 1
8288 8291 1
8288 8888 1
8288 8902 1
8288 8903 1
8288 8906 1
8289 8290 1
8289 8291 1
8289 8292 1
8290 8291 1
8290 8292 1
8290 8305 1
8290 8308 1
8290 8309 1
8291 8292 1
8291 8304 1
8291 8305 1
8291 8308 1
8291 8903 1
8291 8906 1
8291 8907 1
8291 8922 1
8292 8892 1
8292 8906 1
8292 8907 1
8293 8294 1
8293 8295 1
8293 8296 1
8294 8295 1
8294 8296 1
8294 8297 1
8294 8299 1
8294 8313 1
8294 8316 1
8294 8317 1
8295 8296 1
8295 8312 1
8295 8313 1
8295 8316 1
8295 8910 1
8295 8911 1
8295 8930 1
8296 8297 1
8296 8299 1
8296 8895 1
8296 8910 1
8296 8911 1
8296 8914 1
8297 8298 1
8297 8299 1
8297 8300 1
8298 8299 1
8298 8300 1
8298 8317 1
8298 8320 1
8299 8300 1
8299 8316 1
8299 8317 1
8299 8320 1
8299 8911 1
8299 8914 1
8299 8915 1
8299 8934 1
8300 8899 1
8300 8914 1
8300 8915 1
8301 8302 1
8301 8303 1
8301 8304 1
8302 8303 1
8302 8304 1
8302 8305 1
8302 8307 1
8302 8321 1
8302 8324 1
8302 8325 1
8303 8304 1
8303 8321 1
8303 8324 1
8303 8918 1
8303 8919 1
8303 8938 1
8304 8305 1
8304 8307 1
8304 8903 1
8304 8918 1
8304 8919 1
8304 8922 1
8305 8306 1
8305 8307 1
8305 8308 1
8306 8307 1
8306 8308 1
8306 8309 1
8306 8310 1
8306 8325 1
8306 8328 1
8306 8329 1
8307 8308 1
8307 8324 1
8307 8325 1
8307 8328 1
8307 8919 1
8307 8922 1
8307 8923 1
8307 8942 1
8308 8309 1
8308 8310 1
8308 8907 1
8308 8922 1
8308 8923 1
8308 8926 1
8309 8310 1
8310 8328 1
8310 8329 1
8310 8332 1
8310 8923 1
8310 8926 1
8310 8946 1
8311 8312 1
8311 8313 1
8311 8315 1
8311 8335 1
8311 8338 1
8311 8339 1
8312 8313 1
8312 8315 1
8312 8928 1
8312 8930 1
8313 8314 1
8313 8315 1
8313 8316 1
8314 8315 1
8314 8316 1
8314 8317 1
8314 8319 1
8314 8339 1
8314 8342 1
8314 8343 1
8315 8316 1
8315 8338 1
8315 8339 1
8315 8342 1
8315 8928 1
8315 8930 1
8315 8931 1
8315 8956 1
8316 8317 1
8316 8319 1
8316 8911 1
8316 8930 1
8316 8931 1
8316 8934 1
8317 8318 1
8317 8319 1
8317 8320 1
8318 8319 1
8318 8320 1
8318 8343 1
8318 8346 1
8319 8320 1
8319 8342 1
8319 8343 1
8319 8346 1
8319 8931 1
8319 8934 1
8319 8935 1
8319 8960 1
8320 8915 1
8320 8934 1
8320 8935 1
8321 8322 1
8321 8323 1
8321 8324 1
8322 8323 1
8322 8324 1
8322 8325 1
8322 8327 1
8322 8347 1
8322 8350 1
8322 8351 1
8323 8324 1
8323 8347 1
8323 8350 1
8323 8938 1
8323 8939 1
8323 8964 1
8324 8325 1
8324 8327 1
8324 8919 1
8324 8938 1
8324 8939 1
8324 8942 1
8325 8326 1
8325 8327 1
8325 8328 1
8326 8327 1
8326 8328 1
8326 8329 1
8326 8331 1
8326 8351 1
8326 8354 1
8326 8355 1
8327 8328 1
8327 8350 1
8327 8351 1
8327 8354 1
8327 8939 1
8327 8942 1
8327 8943 1
8327 8968 1
8328 8329 1
8328 8331 1
8328 8923 1
8328 8942 1
8328 8943 1
8328 8946 1
8329 8330 1
8329 8331 1
8329 8332 1
8330 8331 1
8330 8332 1
8330 8333 1
8330 8355 1
8330 8358 1
8330 8359 1
8331 8332 1
8331 8354 1
8331 8355 1
8331 8358 1
8331 8943 1
8331 8946 1
8331 8947 1
8331 8972 1
8332 8333 1
8332 8946 1
8332 8947 1
8333 8358 1
8333 8359 1
8333 8362 1
8333 8947 1
8333 8976 1
8334 8335 1
8334 8337 1
8334 8367 1
8334 8368 1
8335 8336 1
8335 8337 1
8335 8338 1
8336 8337 1
8336 8338 1
8336 8339 1
8336 8341 1
8336 8368 1
8336 8371 1
8336 8372 1
8337 8338 1
8337 8367 1
8337 8368 1
8337 8371 1
8337 8951 1
8337 8952 1
8337 8953 1
8337 8985 1
8338 8339 1
8338 8341 1
8338 8928 1
8338 8952 1
8338 8953 1
8338 8956 1
8339 8340 1
8339 8341 1
8339 8342 1
8340 8341 1
8340 8342 1
8340 8343 1
8340 8345 1
8340 8372 1
8340 8375 1
8340 8376 1
8341 8342 1
8341 8371 1
8341 8372 1
8341 8375 1
8341 8953 1
8341 8956 1
8341 8957 1
8341 8989 1
8342 8343 1
8342 8345 1
8342 8931 1
8342 8956 1
8342 8957 1
8342 8960 1
8343 8344 1
8343 8345 1
8343 8346 1
8344 8345 1
8344 8346 1
8344 8376 1
8344 8379 1
8345 8346 1
8345 8375 1
8345 8376 1
8345 8379 1
8345 8957 1
8345 8960 1
8345 8961 1
8345 8993 1
8346 8935 1
8346 8960 1
8346 8961 1
8347 8348 1
8347 8349 1
8347 8350 1
8348 8349 1
8348 8350 1
8348 8351 1
8348 8353 1
8348 8380 1
8348 8383 1
8348 8384 1
8349 8350 1
8349 8380 1
8349 8383 1
8349 8964 1
8349 8965 1
8349 8997 1
8350 8351 1
8350 8353 1
8350 8939 1
8350 8964 1
8350 8965 1
8350 8968 1
8351 8352 1
8351 8353 1
8351 8354 1
8352 8353 1
8352 8354 1
8352 8355 1
8352 8357 1
8352 8384 1
8352 8387 1
8352 8388 1
8353 8354 1
8353 8383 1
8353 8384 1
8353 8387 1
8353 8965 1
8353 8968 1
8353 8969 1
8353 9001 1
8354 8355 1
8354 8357 1
8354 8943 1
8354 8968 1
8354 8969 1
8354 8972 1
8355 8356 1
8355 8357 1
8355 8358 1
8356 8357 1
8356 8358 1
8356 8359 1
8356 8361 1
8356 8388 1
8356 8391 1
8356 8392 1
8357 8358 1
8357 8387 1
8357 8388 1
8357 8391 1
8357 8969 1
8357 8972 1
8357 8973 1
8357 9005 1
8358 8359 1
8358 8361 1
8358 8947 1
8358 8972 1
8358 8973 1
8358 8976 1
8359 8360 1
8359 8361 1
8359 8362 1
8360 8361 1
8360 8362 1
8360 8363 1
8360 8392 1
8360 8395 1
8360 8396 1
8361 8362 1
8361 8391 1
8361 8392 1
8361 8395 1
8361 8973 1
8361 8976 1
8361 8977 1
8361 9009 1
8362 8363 1
8362 8976 1
8362 8977 1
8363 8395 1
8363 8396 1
8363 8399 1
8363 8977 1
8363 9013 1
8364 8366 1
8364 8404 1
8364 8407 1
8364 8408 1
8365 8366 1
8365 8367 1
8365 8368 1
8365 8370 1
8365 8408 1
8365 8411 1
8365 8412 1
8366 8367 1
8366 8407 1
8366 8408 1
8366 8411 1
8366 8981 1
8366 8982 1
8366 9025 1
8367 8368 1
8367 8370 1
8367 8951 1
8367 8982 1
8367 8985 1
8368 8369 1
8368 8370 1
8368 8371 1
8369 8370 1
8369 8371 1
8369 8372 1
8369 8374 1
8369 8412 1
8369 8415 1
8369 8416 1
8370 8371 1
8370 8411 1
8370 8412 1
8370 8415 1
8370 8982 1
8370 8985 1
8370 8986 1
8370 9029 1
8371 8372 1
8371 8374 1
8371 8953 1
8371 8985 1
8371 8986 1
8371 8989 1
8372 8373 1
8372 8374 1
8372 8375 1
8373 8374 1
8373 8375 1
8373 8376 1
8373 8378 1
8373 8416 1
8373 8419 1
8373 8420 1
8374 8375 1
8374 8415 1
8374 8416 1
8374 8419 1
8374 8986 1
8374 8989 1
8374 8990 1
8374 9033 1
8375 8376 1
8375 8378 1
8375 8957 1
8375 8989 1
8375 8990 1
8375 8993 1
8376 8377 1
8376 8378 1
8376 8379 1
8377 8378 1
8377 8379 1
8377 8420 1
8377 8423 1
8378 8379 1
8378 8419 1
8378 8420 1
8378 8423 1
8378 8990 1
8378 8993 1
8378 8994 1
8378 9037 1
8379 8961 1
8379 8993 1
8379 8994 1
8380 8381 1
8380 8382 1
8380 8383 1
8381 8382 1
8381 8383 1
8381 8384 1
8381 8386 1
8381 8424 1
8381 8427 1
8381 8428 1
8382 8383 1
8382 8424 1
8382 8427 1
8382 8997 1
8382 8998 1
8382 9041 1
8383 8384 1
8383 8386 1
8383 8965 1
8383 8997 1
8383 8998 1
8383 9001 1
8384 8385 1
8384 8386 1
8384 8387 1
8385 8386 1
8385 8387 1
8385 8388 1
8385 8390 1
8385 8428 1
8385 8431 1
8385 8432 1
8386 8387 1
8386 8427 1
8386 8428 1
8386 8431 1
8386 8998 1
8386 9001 1
8386 9002 1
8386 9045 1
8387 8388 1
8387 8390 1
8387 8969 1
8387 9001 1
8387 9002 1
8387 9005 1
8388 8389 1
8388 8390 1
8388 8391 1
8389 8390 1
8389 8391 1
8389 8392 1
8389 8394 1
8389 8432 1
8389 8435 1
8389 8436 1
8390 8391 1
8390 8431 1
8390 8432 1
8390 8435 1
8390 9002 1
8390 9005 1
8390 9006 1
8390 9049 1
8391 8392 1
8391 8394 1
8391 8973 1
8391 9005 1
8391 9006 1
8391 9009 1
8392 8393 1
8392 8394 1
8392 8395 1
8393 8394 1
8393 8395 1
8393 8396 1
8393 8398 1
8393 8436 1
8393 8439 1
8393 8440 1
8394 8395 1
8394 8435 1
8394 8436 1
8394 8439 1
8394 9006 1
8394 9009 1
8394 9010 1
8394 9053 1
8395 8396 1
8395 8398 1
8395 8977 1
8395 9009 1
8395 9010 1
8395 9013 1
8396 8397 1
8396 8398 1
8396 8399 1
8397 8398 1
8397 8399 1
8397 8401 1
8397 8440 1
8397 8443 1
8397 8444 1
8398 8399 1
8398 8439 1
8398 8440 1
8398 8443 1
8398 9010 1
8398 9013 1
8398 9014 1
8398 9057 1
8399 8401 1
8399 9013 1
8399 9014 1
8400 8401 1
8400 8444 1
8400 8447 1
8400 8448 1
8401 8443 1
8401 8444 1
8401 8447 1
8401 9014 1
8401 9017 1
8401 9061 1
8402 8403 1
8402 8404 1
8402 8406 1
8402 8466 1
8402 8469 1
8402 8470 1
8403 8465 1
8403 8466 1
8403 8469 1
8403 9019 1
8403 9083 1
8404 8405 1
8404 8406 1
8404 8407 1
8405 8406 1
8405 8407 1
8405 8408 1
8405 8410 1
8405 8470 1
8405 8473 1
8405 8474 1
8406 8407 1
8406 8469 1
8406 8470 1
8406 8473 1
8406 9019 1
8406 9021 1
8406 9022 1
8406 9087 1
8407 8408 1
8407 8410 1
8407 8981 1
8407 9021 1
8407 9022 1
8407 9025 1
8408 8409 1
8408 8410 1
8408 8411 1
8409 8410 1
8409 8411 1
8409 8412 1
8409 8414 1
8409 8474 1
8409 8477 1
8409 8478 1
8410 8411 1
8410 8473 1
8410 8474 1
8410 8477 1
8410 9022 1
8410 9025 1
8410 9026 1
8410 9091 1
8411 8412 1
8411 8414 1
8411 8982 1
8411 9025 1
8411 9026 1
8411 9029 1
8412 8413 1
8412 8414 1
8412 8415 1
8413 8414 1
8413 8415 1
8413 8416 1
8413 8418 1
8413 8478 1
8413 8481 1
8413 8482 1
8414 8415 1
8414 8477 1
8414 8478 1
8414 8481 1
8414 9026 1
8414 9029 1
8414 9030 1
8414 9095 1
8415 8416 1
8415 8418 1
8415 8986 1
8415 9029 1
8415 9030 1
8415 9033 1
8416 8417 1
8416 8418 1
8416 8419 1
8417 8418 1
8417 8419 1
8417 8420 1
8417 8422 1
8417 8482 1
8417 8485 1
8417 8486 1
8418 8419 1
8418 8481 1
8418 8482 1
8418 8485 1
8418 9030 1
8418 9033 1
8418 9034 1
8418 9099 1
8419 8420 1
8419 8422 1
8419 8990 1
8419 9033 1
8419 9034 1
8419 9037 1
8420 8421 1
8420 8422 1
8420 8423 1
8421 8422 1
8421 8423 1
8421 8486 1
8421 8489 1
8422 8423 1
8422 8485 1
8422 8486 1
8422 8489 1
8422 9034 1
8422 9037 1
8422 9038 1
8422 9103 1
8423 8994 1
8423 9037 1
8423 9038 1
8424 8425 1
8424 8426 1
8424 8427 1
8425 8426 1
8425 8427 1
8425 8428 1
8425 8430 1
8425 8490 1
8425 8493 1
8425 8494 1
8426 8427 1
8426 8490 1
8426 8493 1
8426 9041 1
8426 9042 1
8426 9107 1
8427 8428 1
8427 8430 1
8427 8998 1
8427 9041 1
8427 9042 1
8427 9045 1
8428 8429 1
8428 8430 1
8428 8431 1
8429 8430 1
8429 8431 1
8429 8432 1
8429 8434 1
8429 8494 1
8429 8497 1
8429 8498 1
8430 8431 1
8430 8493 1
8430 8494 1
8430 8497 1
8430 9042 1
8430 9045 1
8430 9046 1
8430 9111 1
8431 8432 1
8431 8434 1
8431 9002 1
8431 9045 1
8431 9046 1
8431 9049 1
8432 8433 1
8432 8434 1
8432 8435 1
8433 8434 1
8433 8435 1
8433 8436 1
8433 8438 1
8433 8498 1
8433 8501 1
8433 8502 1
8434 8435 1
8434 8497 1
8434 8498 1
8434 8501 1
8434 9046 1
8434 9049 1
8434 9050 1
8434 9115 1
8435 8436 1
8435 8438 1
8435 9006 1
8435 9049 1
8435 9050 1
8435 9053 1
8436 8437 1
8436 8438 1
8436 8439 1
8437 8438 1
8437 8439 1
8437 8440 1
8437 8442 1
8437 8502 1
8437 8505 1
8437 8506 1
8438 8439 1
8438 8501 1
8438 8502 1
8438 8505 1
8438 9050 1
8438 9053 1
8438 9054 1
8438 9119 1
8439 8440 1
8439 8442 1
8439 9010 1
8439 9053 1
8439 9054 1
8439 9057 1
8440 8441 1
8440 8442 1
8440 8443 1
8441 8442 1
8441 8443 1
8441 8444 1
8441 8446 1
8441 8506 1
8441 8509 1
8441 8510 1
8442 8443 1
8442 8505 1
8442 8506 1
8442 8509 1
8442 9054 1
8442 9057 1
8442 9058 1
8442 9123 1
8443 8444 1
8443 8446 1
8443 9014 1
8443 9057 1
8443 9058 1
8443 9061 1
8444 8445 1
8444 8446 1
8444 8447 1
8445 8446 1
8445 8447 1
8445 8448 1
8445 8450 1
8445 8510 1
8445 8513 1
8445 8514 1
8446 8447 1
8446 8509 1
8446 8510 1
8446 8513 1
8446 9058 1
8446 9061 1
8446 9062 1
8446 9127 1
8447 8448 1
8447 8450 1
8447 9017 1
8447 9061 1
8447 9062 1
8447 9065 1
8448 8449 1
8448 8450 1
8448 8451 1
8449 8450 1
8449 8451 1
8449 8452 1
8449 8454 1
8449 8514 1
8449 8517 1
8449 8518 1
8450 8451 1
8450 8513 1
8450 8514 1
8450 8517 1
8450 9062 1
8450 9065 1
8450 9066 1
8450 9131 1
8451 8452 1
8451 8454 1
8451 9065 1
8451 9066 1
8451 9069 1
8452 8453 1
8452 8454 1
8453 8454 1
8453 8456 1
8453 8518 1
8453 8521 1
8453 8522 1
8454 8517 1
8454 8518 1
8454 8521 1
8454 9066 1
8454 9069 1
8454 9070 1
8454 9135 1
8455 8456 1
8455 8458 1
8455 8522 1
8455 8525 1
8455 8526 1
8456 8521 1
8456 8522 1
8456 8525 1
8456 9070 1
8456 9072 1
8456 9139 1
8457 8458 1
8457 8460 1
8457 8526 1
8457 8529 1
8457 8530 1
8458 8525 1
8458 8526 1
8458 8529 1
8458 9072 1
8458 9074 1
8458 9143 1
8459 8460 1
8459 8461 1
8459 8462 1
8459 8464 1
8459 8530 1
8459 8533 1
8459 8534 1
8460 8461 1
8460 8529 1
8460 8530 1
8460 8533 1
8460 9074 1
8460 9076 1
8460 9147 1
8461 8462 1
8461 8464 1
8461 9076 1
8461 9079 1
8462 8463 1
8462 8464 1
8462 8465 1
8463 8464 1
8463 8465 1
8463 8466 1
8463 8468 1
8463 8534 1
8463 8537 1
8463 8538 1
8464 8465 1
8464 8533 1
8464 8534 1
8464 8537 1
8464 9076 1
8464 9079 1
8464 9080 1
8464 9151 1
8465 8466 1
8465 8468 1
8465 9079 1
8465 9080 1
8465 9083 1
8466 8467 1
8466 8468 1
8466 8469 1
8467 8468 1
8467 8469 1
8467 8470 1
8467 8472 1
8467 8538 1
8467 8541 1
8467 8542 1
8468 8469 1
8468 8537 1
8468 8538 1
8468 8541 1
8468 9080 1
8468 9083 1
8468 9084 1
8468 9155 1
8469 8470 1
8469 8472 1
8469 9019 1
8469 9083 1
8469 9084 1
8469 9087 1
8470 8471 1
8470 8472 1
8470 8473 1
8471 8472 1
8471 8473 1
8471 8474 1
8471 8476 1
8471 8542 1
8471 8545 1
8471 8546 1
8472 8473 1
8472 8541 1
8472 8542 1
8472 8545 1
8472 9084 1
8472 9087 1
8472 9088 1
8472 9159 1
8473 8474 1
8473 8476 1
8473 9022 1
8473 9087 1
8473 9088 1
8473 9091 1
8474 8475 1
8474 8476 1
8474 8477 1
8475 8476 1
8475 8477 1
8475 8478 1
8475 8480 1
8475 8546 1
8475 8549 1
8475 8550 1
8476 8477 1
8476 8545 1
8476 8546 1
8476 8549 1
8476 9088 1
8476 9091 1
8476 9092 1
8476 9163 1
8477 8478 1
8477 8480 1
8477 9026 1
8477 9091 1
8477 9092 1
8477 9095 1
8478 8479 1
8478 8480 1
8478 8481 1
8479 8480 1
8479 8481 1
8479 8482 1
8479 8484 1
8479 8550 1
8479 8553 1
8479 8554 1
8480 8481 1
8480 8549 1
8480 8550 1
8480 8553 1
8480 9092 1
8480 9095 1
8480 9096 1
8480 9167 1
8481 8482 1
8481 8484 1
8481 9030 1
8481 9095 1
8481 9096 1
8481 9099 1
8482 8483 1
8482 8484 1
8482 8485 1
8483 8484 1
8483 8485 1
8483 8486 1
8483 8488 1
8483 8554 1
8483 8557 1
8483 8558 1
8484 8485 1
8484 8553 1
8484 8554 1
8484 8557 1
8484 9096 1
8484 9099 1
8484 9100 1
8484 9171 1
8485 8486 1
8485 8488 1
8485 9034 1
8485 9099 1
8485 9100 1
8485 9103 1
8486 8487 1
8486 8488 1
8486 8489 1
8487 8488 1
8487 8489 1
8487 8558 1
8487 8561 1
8488 8489 1
8488 8557 1
8488 8558 1
8488 8561 1
8488 9100 1
8488 9103 1
8488 9104 1
8488 9175 1
8489 9038 1
8489 9103 1
8489 9104 1
8490 8491 1
8490 8492 1
8490 8493 1
8491 8492 1
8491 8493 1
8491 8494 1
8491 8496 1
8492 8493 1
8492 9107 1
8492 9108 1
8493 8494 1
8493 8496 1
8493 9042 1
8493 9107 1
8493 9108 1
8493 9111 1
8494 8495 1
8494 8496 1
8494 8497 1
8495 8496 1
8495 8497 1
8495 8498 1
8495 8500 1
8496 8497 1
8496 9108 1
8496 9111 1
8496 9112 1
8497 8498 1
8497 8500 1
8497 9046 1
8497 9111 1
8497 9112 1
8497 9115 1
8498 8499 1
8498 8500 1
8498 8501 1
8499 8500 1
8499 8501 1
8499 8502 1
8499 8504 1
8500 8501 1
8500 9112 1
8500 9115 1
8500 9116 1
8501 8502 1
8501 8504 1
8501 9050 1
8501 9115 1
8501 9116 1
8501 9119 1
8502 8503 1
8502 8504 1
8502 8505 1
8503 8504 1
8503 8505 1
8503 8506 1
8503 8508 1
8504 8505 1
8504 9116 1
8504 9119 1
8504 9120 1
8505 8506 1
8505 8508 1
8505 9054 1
8505 9119 1
8505 9120 1
8505 9123 1
8506 8507 1
8506 8508 1
8506 8509 1
8507 8508 1
8507 8509 1
8507 8510 1
8507 8512 1
8508 8509 1
8508 9120 1
8508 9123 1
8508 9124 1
8509 8510 1
8509 8512 1
8509 9058 1
8509 9123 1
8509 9124 1
8509 9127 1
8510 8511 1
8510 8512 1
8510 8513 1
8511 8512 1
8511 8513 1
8511 8514 1
8511 8516 1
8512 8513 1
8512 9124 1
8512 9127 1
8512 9128 1
8513 8514 1
8513 8516 1
8513 9062 1
8513 9127 1
8513 9128 1
8513 9131 1
8514 8515 1
8514 8516 1
8514 8517 1
8515 8516 1
8515 8517 1
8515 8518 1
8515 8520 1
8516 8517 1
8516 9128 1
8516 9131 1
8516 9132 1
8517 8518 1
8517 8520 1
8517 9066 1
8517 9131 1
8517 9132 1
8517 9135 1
8518 8519 1
8518 8520 1
8518 8521 1
8519 8520 1
8519 8521 1
8519 8522 1
8519 8524 1
8520 8521 1
8520 9132 1
8520 9135 1
8520 9136 1
8521 8522 1
8521 8524 1
8521 9070 1
8521 9135 1
8521 9136 1
8521 9139 1
8522 8523 1
8522 8524 1
8522 8525 1
8523 8524 1
8523 8525 1
8523 8526 1
8523 8528 1
8524 8525 1
8524 9136 1
8524 9139 1
8524 9140 1
8525 8526 1
8525 8528 1
8525 9072 1
8525 9139 1
8525 9140 1
8525 9143 1
8526 8527 1
8526 8528 1
8526 8529 1
8527 8528 1
8527 8529 1
8527 8530 1
8527 8532 1
8528 8529 1
8528 9140 1
8528 9143 1
8528 9144 1
8529 8530 1
8529 8532 1
8529 9074 1
8529 9143 1
8529 9144 1
8529 9147 1
8530 8531 1
8530 8532 1
8530 8533 1
8531 8532 1
8531 8533 1
8531 8534 1
8531 8536 1
8532 8533 1
8532 9144 1
8532 9147 1
8532 9148 1
8533 8534 1
8533 8536 1
8533 9076 1
8533 9147 1
8533 9148 1
8533 9151 1
8534 8535 1
8534 8536 1
8534 8537 1
8535 8536 1
8535 8537 1
8535 8538 1
8535 8540 1
8536 8537 1
8536 9148 1
8536 9151 1
8536 9152 1
8537 8538 1
8537 8540 1
8537 9080 1
8537 9151 1
8537 9152 1
8537 9155 1
8538 8539 1
8538 8540 1
8538 8541 1
8539 8540 1
8539 8541 1
8539 8542 1
8539 8544 1
8540 8541 1
8540 9152 1
8540 9155 1
8540 9156 1
8541 8542 1
8541 8544 1
8541 9084 1
8541 9155 1
8541 9156 1
8541 9159 1
8542 8543 1
8542 8544 1
8542 8545 1
8543 8544 1
8543 8545 1
8543 8546 1
8543 8548 1
8544 8545 1
8544 9156 1
8544 9159 1
8544 9160 1
8545 8546 1
8545 8548 1
8545 9088 1
8545 9159 1
8545 9160 1
8545 9163 1
8546 8547 1
8546 8548 1
8546 8549 1
8547 8548 1
8547 8549 1
8547 8550 1
8547 8552 1
8548 8549 1
8548 9160 1
8548 9163 1
8548 9164 1
8549 8550 1
8549 8552 1
8549 9092 1
8549 9163 1
8549 9164 1
8549 9167 1
8550 8551 1
8550 8552 1
8550 8553 1
8551 8552 1
8551 8553 1
8551 8554 1
8551 8556 1
8552 8553 1
8552 9164 1
8552 9167 1
8552 9168 1
8553 8554 1
8553 8556 1
8553 9096 1
8553 9167 1
8553 9168 1
8553 9171 1
8554 8555 1
8554 8556 1
8554 8557 1
8555 8556 1
8555 8557 1
8555 8558 1
8555 8560 1
8556 8557 1
8556 9168 1
8556 9171 1
8556 9172 1
8557 8558 1
8557 8560 1
8557 9100 1
8557 9171 1
8557 9172 1
8557 9175 1
8558 8559 1
8558 8560 1
8558 8561 1
8559 8560 1
8559 8561 1
8560 8561 1
8560 9172 1
8560 9175 1
8560 9176 1
8561 9104 1
8561 9175 1
8561 9176 1
8562 8563 1
8562 8564 1
8562 8565 1
8563 8564 1
8563 8565 1
8563 8566 1
8563 8568 1
8563 8634 1
8563 8637 1
8563 8638 1
8564 8565 1
8564 8634 1
8564 8637 1
8564 9179 1
8564 9180 1
8564 9251 1
8565 8566 1
8565 8568 1
8565 9179 1
8565 9180 1
8565 9183 1
8566 8567 1
8566 8568 1
8566 8569 1
8567 8568 1
8567 8569 1
8567 8570 1
8567 8572 1
8567 8638 1
8567 8641 1
8567 8642 1
8568 8569 1
8568 8637 1
8568 8638 1
8568 8641 1
8568 9180 1
8568 9183 1
8568 9184 1
8568 9255 1
8569 8570 1
8569 8572 1
8569 9183 1
8569 9184 1
8569 9187 1
8570 8571 1
8570 8572 1
8570 8573 1
8571 8572 1
8571 8573 1
8571 8574 1
8571 8576 1
8571 8642 1
8571 8645 1
8571 8646 1
8572 8573 1
8572 8641 1
8572 8642 1
8572 8645 1
8572 9184 1
8572 9187 1
8572 9188 1
8572 9259 1
8573 8574 1
8573 8576 1
8573 9187 1
8573 9188 1
8573 9191 1
8574 8575 1
8574 8576 1
8574 8577 1
8575 8576 1
8575 8577 1
8575 8578 1
8575 8580 1
8575 8646 1
8575 8649 1
8575 8650 1
8576 8577 1
8576 8645 1
8576 8646 1
8576 8649 1
8576 9188 1
8576 9191 1
8576 9192 1
8576 9263 1
8577 8578 1
8577 8580 1
8577 9191 1
8577 9192 1
8577 9195 1
8578 8579 1
8578 8580 1
8578 8581 1
8579 8580 1
8579 8581 1
8579 8582 1
8579 8584 1
8579 8650 1
8579 8653 1
8579 8654 1
8580 8581 1
8580 8649 1
8580 8650 1
8580 8653 1
8580 9192 1
8580 9195 1
8580 9196 1
8580 9267 1
8581 8582 1
8581 8584 1
8581 9195 1
8581 9196 1
8581 9199 1
8582 8583 1
8582 8584 1
8582 8585 1
8583 8584 1
8583 8585 1
8583 8586 1
8583 8588 1
8583 8654 1
8583 8657 1
8583 8658 1
8584 8585 1
8584 8653 1
8584 8654 1
8584 8657 1
8584 9196 1
8584 9199 1
8584 9200 1
8584 9271 1
8585 8586 1
8585 8588 1
8585 9199 1
8585 9200 1
8585 9203 1
8586 8587 1
8586 8588 1
8586 8589 1
8587 8588 1
8587 8589 1
8587 8590 1
8587 8592 1
8587 8658 1
8587 8661 1
8587 8662 1
8588 8589 1
8588 8657 1
8588 8658 1
8588 8661 1
8588 9200 1
8588 9203 1
8588 9204 1
8588 9275 1
8589 8590 1
8589 8592 1
8589 9203 1
8589 9204 1
8589 9207 1
8590 8591 1
8590 8592 1
8590 8593 1
8591 8592 1
8591 8593 1
8591 8594 1
8591 8596 1
8591 8662 1
8591 8665 1
8591 8666 1
8592 8593 1
8592 8661 1
8592 8662 1
8592 8665 1
8592 9204 1
8592 9207 1
8592 9208 1
8592 9279 1
8593 8594 1
8593 8596 1
8593 9207 1
8593 9208 1
8593 9211 1
8594 8595 1
8594 8596 1
8594 8597 1
8595 8596 1
8595 8597 1
8595 8598 1
8595 8600 1
8595 8666 1
8595 8668 1
8595 8669 1
8596 8597 1
8596 8665 1
8596 8666 1
8596 8668 1
8596 9208 1
8596 9211 1
8596 9212 1
8596 9283 1
8597 8598 1
8597 8600 1
8597 9211 1
8597 9212 1
8597 9215 1
8598 8599 1
8598 8600 1
8598 8601 1
8599 8600 1
8599 8601 1
8599 8602 1
8599 8604 1
8599 8669 1
8599 8670 1
8599 8671 1
8600 8601 1
8600 8668 1
8600 8669 1
8600 8670 1
8600 9212 1
8600 9215 1
8600 9216 1
8600 9286 1
8601 8602 1
8601 8604 1
8601 9215 1
8601 9216 1
8601 9219 1
8602 8603 1
8602 8604 1
8602 8605 1
8603 8604 1
8603 8605 1
8603 8606 1
8603 8608 1
8603 8671 1
8603 8674 1
8603 8675 1
8604 8605 1
8604 8670 1
8604 8671 1
8604 8674 1
8604 9216 1
8604 9219 1
8604 9220 1
8604 9288 1
8605 8606 1
8605 8608 1
8605 9219 1
8605 9220 1
8605 9223 1
8606 8607 1
8606 8608 1
8606 8609 1
8607 8608 1
8607 8609 1
8607 8610 1
8607 8612 1
8607 8675 1
8607 8678 1
8607 8679 1
8608 8609 1
8608 8674 1
8608 8675 1
8608 8678 1
8608 9220 1
8608 9223 1
8608 9224 1
8608 9292 1
8609 8610 1
8609 8612 1
8609 9223 1
8609 9224 1
8609 9227 1
8610 8611 1
8610 8612 1
8610 8613 1
8611 8612 1
8611 8613 1
8611 8614 1
8611 8616 1
8611 8679 1
8611 8682 1
8611 8683 1
8612 8613 1
8612 8678 1
8612 8679 1
8612 8682 1
8612 9224 1
8612 9227 1
8612 9228 1
8612 9296 1
8613 8614 1
8613 8616 1
8613 9227 1
8613 9228 1
8613 9231 1
8614 8615 1
8614 8616 1
8614 8617 1
8615 8616 1
8615 8617 1
8615 8618 1
8615 8620 1
8615 8683 1
8615 8686 1
8615 8687 1
8616 8617 1
8616 8682 1
8616 8683 1
8616 8686 1
8616 9228 1
8616 9231 1
8616 9232 1
8616 9300 1
8617 8618 1
8617 8620 1
8617 9231 1
8617 9232 1
8617 9235 1
8618 8619 1
8618 8620 1
8618 8621 1
8619 8620 1
8619 8621 1
8619 8622 1
8619 8624 1
8619 8687 1
8619 8690 1
8619 8691 1
8620 8621 1
8620 8686 1
8620 8687 1
8620 8690 1
8620 9232 1
8620 9235 1
8620 9236 1
8620 9304 1
8621 8622 1
8621 8624 1
8621 9235 1
8621 9236 1
8621 9239 1
8622 8623 1
8622 8624 1
8622 8625 1
8623 8624 1
8623 8625 1
8623 8626 1
8623 8628 1
8623 8691 1
8623 8694 1
8623 8695 1
8624 8625 1
8624 8690 1
8624 8691 1
8624 8694 1
8624 9236 1
8624 9239 1
8624 9240 1
8624 9308 1
8625 8626 1
8625 8628 1
8625 9239 1
8625 9240 1
8625 9243 1
8626 8627 1
8626 8628 1
8626 8629 1
8627 8628 1
8627 8629 1
8627 8630 1
8627 8632 1
8627 8695 1
8627 8698 1
8627 8699 1
8628 8629 1
8628 8694 1
8628 8695 1
8628 8698 1
8628 9240 1
8628 9243 1
8628 9244 1
8628 9312 1
8629 8630 1
8629 8632 1
8629 9243 1
8629 9244 1
8629 9247 1
8630 8631 1
8630 8632 1
8630 8633 1
8631 8632 1
8631 8633 1
8631 8699 1
8631 8702 1
8632 8633 1
8632 8698 1
8632 8699 1
8632 8702 1
8632 9244 1
8632 9247 1
8632 9248 1
8632 9316 1
8633 9247 1
8633 9248 1
8634 8635 1
8634 8636 1
8634 8637 1
8635 8636 1
8635 8637 1
8635 8638 1
8635 8640 1
8635 8703 1
8635 8706 1
8635 8707 1
8636 8637 1
8636 8703 1
8636 8706 1
8636 9251 1
8636 9252 1
8636 9320 1
8637 8638 1
8637 8640 1
8637 9180 1
8637 9251 1
8637 9252 1
8637 9255 1
8638 8639 1
8638 8640 1
8638 8641 1
8639 8640 1
8639 8641 1
8639 8642 1
8639 8644 1
8639 8707 1
8639 8710 1
8639 8711 1
8640 8641 1
8640 8706 1
8640 8707 1
8640 8710 1
8640 9252 1
8640 9255 1
8640 9256 1
8640 9324 1
8641 8642 1
8641 8644 1
8641 9184 1
8641 9255 1
8641 9256 1
8641 9259 1
8642 8643 1
8642 8644 1
8642 8645 1
8643 8644 1
8643 8645 1
8643 8646 1
8643 8648 1
8643 8711 1
8643 8714 1
8643 8715 1
8644 8645 1
8644 8710 1
8644 8711 1
8644 8714 1
8644 9256 1
8644 9259 1
8644 9260 1
8644 9328 1
8645 8646 1
8645 8648 1
8645 9188 1
8645 9259 1
8645 9260 1
8645 9263 1
8646 8647 1
8646 8648 1
8646 8649 1
8647 8648 1
8647 8649 1
8647 8650 1
8647 8652 1
8647 8715 1
8647 8718 1
8647 8719 1
8648 8649 1
8648 8714 1
8648 8715 1
8648 8718 1
8648 9260 1
8648 9263 1
8648 9264 1
8648 9332 1
8649 8650 1
8649 8652 1
8649 9192 1
8649 9263 1
8649 9264 1
8649 9267 1
8650 8651 1
8650 8652 1
8650 8653 1
8651 8652 1
8651 8653 1
8651 8654 1
8651 8656 1
8651 8719 1
8651 8722 1
8651 8723 1
8652 8653 1
8652 8718 1
8652 8719 1
8652 8722 1
8652 9264 1
8652 9267 1
8652 9268 1
8652 9336 1
8653 8654 1
8653 8656 1
8653 9196 1
8653 9267 1
8653 9268 1
8653 9271 1
8654 8655 1
8654 8656 1
8654 8657 1
8655 8656 1
8655 8657 1
8655 8658 1
8655 8660 1
8655 8723 1
8655 8725 1
8655 8726 1
8656 8657 1
8656 8722 1
8656 8723 1
8656 8725 1
8656 9268 1
8656 9271 1
8656 9272 1
8656 9340 1
8657 8658 1
8657 8660 1
8657 9200 1
8657 9271 1
8657 9272 1
8657 9275 1
8658 8659 1
8658 8660 1
8658 8661 1
8659 8660 1
8659 8661 1
8659 8662 1
8659 8664 1
8659 8726 1
8660 8661 1
8660 8725 1
8660 8726 1
8660 9272 1
8660 9275 1
8660 9276 1
8660 9343 1
8661 8662 1
8661 8664 1
8661 9204 1
8661 9275 1
8661 9276 1
8661 9279 1
8662 8663 1
8662 8664 1
8662 8665 1
8663 8664 1
8663 8665 1
8663 8666 1
8663 8667 1
8664 8665 1
8664 9276 1
8664 9279 1
8664 9280 1
8665 8666 1
8665 8667 1
8665 9208 1
8665 9279 1
8665 9280 1
8665 9283 1
8666 8667 1
8666 8668 1
8667 8668 1
8667 9280 1
8667 9283 1
8668 8669 1
8668 9212 1
8668 9283 1
8668 9286 1
8669 8670 1
8670 8671 1
8670 8673 1
8670 9216 1
8670 9286 1
8670 9288 1
8671 8672 1
8671 8673 1
8671 8674 1
8672 8673 1
8672 8674 1
8672 8675 1
8672 8677 1
8673 8674 1
8673 9288 1
8673 9289 1
8674 8675 1
8674 8677 1
8674 9220 1
8674 9288 1
8674 9289 1
8674 9292 1
8675 8676 1
8675 8677 1
8675 8678 1
8676 8677 1
8676 8678 1
8676 8679 1
8676 8681 1
8676 8727 1
8677 8678 1
8677 9289 1
8677 9292 1
8677 9293 1
8678 8679 1
8678 8681 1
8678 9224 1
8678 9292 1
8678 9293 1
8678 9296 1
8679 8680 1
8679 8681 1
8679 8682 1
8680 8681 1
8680 8682 1
8680 8683 1
8680 8685 1
8680 8727 1
8680 8728 1
8680 8729 1
8681 8682 1
8681 8727 1
8681 8728 1
8681 9293 1
8681 9296 1
8681 9297 1
8681 9344 1
8682 8683 1
8682 8685 1
8682 9228 1
8682 9296 1
8682 9297 1
8682 9300 1
8683 8684 1
8683 8685 1
8683 8686 1
8684 8685 1
8684 8686 1
8684 8687 1
8684 8689 1
8684 8729 1
8684 8732 1
8684 8733 1
8685 8686 1
8685 8728 1
8685 8729 1
8685 8732 1
8685 9297 1
8685 9300 1
8685 9301 1
8685 9346 1
8686 8687 1
8686 8689 1
8686 9232 1
8686 9300 1
8686 9301 1
8686 9304 1
8687 8688 1
8687 8689 1
8687 8690 1
8688 8689 1
8688 8690 1
8688 8691 1
8688 8693 1
8688 8733 1
8688 8736 1
8688 8737 1
8689 8690 1
8689 8732 1
8689 8733 1
8689 8736 1
8689 9301 1
8689 9304 1
8689 9305 1
8689 9350 1
8690 8691 1
8690 8693 1
8690 9236 1
8690 9304 1
8690 9305 1
8690 9308 1
8691 8692 1
8691 8693 1
8691 8694 1
8692 8693 1
8692 8694 1
8692 8695 1
8692 8697 1
8692 8737 1
8692 8740 1
8692 8741 1
8693 8694 1
8693 8736 1
8693 8737 1
8693 8740 1
8693 9305 1
8693 9308 1
8693 9309 1
8693 9354 1
8694 8695 1
8694 8697 1
8694 9240 1
8694 9308 1
8694 9309 1
8694 9312 1
8695 8696 1
8695 8697 1
8695 8698 1
8696 8697 1
8696 8698 1
8696 8699 1
8696 8701 1
8696 8741 1
8696 8744 1
8696 8745 1
8697 8698 1
8697 8740 1
8697 8741 1
8697 8744 1
8697 9309 1
8697 9312 1
8697 9313 1
8697 9358 1
8698 8699 1
8698 8701 1
8698 9244 1
8698 9312 1
8698 9313 1
8698 9316 1
8699 8700 1
8699 8701 1
8699 8702 1
8700 8701 1
8700 8702 1
8700 8745 1
8700 8748 1
8701 8702 1
8701 8744 1
8701 8745 1
8701 8748 1
8701 9313 1
8701 9316 1
8701 9317 1
8701 9362 1
8702 9248 1
8702 9316 1
8702 9317 1
8703 8704 1
8703 8705 1
8703 8706 1
8704 8705 1
8704 8706 1
8704 8707 1
8704 8709 1
8704 8749 1
8704 8752 1
8704 8753 1
8705 8706 1
8705 8749 1
8705 8752 1
8705 9320 1
8705 9321 1
8705 9366 1
8706 8707 1
8706 8709 1
8706 9252 1
8706 9320 1
8706 9321 1
8706 9324 1
8707 8708 1
8707 8709 1
8707 8710 1
8708 8709 1
8708 8710 1
8708 8711 1
8708 8713 1
8708 8753 1
8708 8756 1
8708 8757 1
8709 8710 1
8709 8752 1
8709 8753 1
8709 8756 1
8709 9321 1
8709 9324 1
8709 9325 1
8709 9370 1
8710 8711 1
8710 8713 1
8710 9256 1
8710 9324 1
8710 9325 1
8710 9328 1
8711 8712 1
8711 8713 1
8711 8714 1
8712 8713 1
8712 8714 1
8712 8715 1
8712 8717 1
8712 8757 1
8712 8760 1
8712 8761 1
8713 8714 1
8713 8756 1
8713 8757 1
8713 8760 1
8713 9325 1
8713 9328 1
8713 9329 1
8713 9374 1
8714 8715 1
8714 8717 1
8714 9260 1
8714 9328 1
8714 9329 1
8714 9332 1
8715 8716 1
8715 8717 1
8715 8718 1
8716 8717 1
8716 8718 1
8716 8719 1
8716 8721 1
8716 8761 1
8716 8764 1
8716 8765 1
8717 8718 1
8717 8760 1
8717 8761 1
8717 8764 1
8717 9329 1
8717 9332 1
8717 9333 1
8717 9378 1
8718 8719 1
8718 8721 1
8718 9264 1
8718 9332 1
8718 9333 1
8718 9336 1
8719 8720 1
8719 8721 1
8719 8722 1
8720 8721 1
8720 8722 1
8720 8723 1
8720 8724 1
8720 8765 1
8721 8722 1
8721 8764 1
8721 8765 1
8721 9333 1
8721 9336 1
8721 9337 1
8721 9382 1
8722 8723 1
8722 8724 1
8722 9268 1
8722 9336 1
8722 9337 1
8722 9340 1
8723 8724 1
8723 8725 1
8724 8725 1
8724 9337 1
8724 9340 1
8725 8726 1
8725 9272 1
8725 9340 1
8725 9343 1
8727 8728 1
8728 8729 1
8728 8731 1
8728 9297 1
8728 9344 1
8728 9346 1
8729 8730 1
8729 8731 1
8729 8732 1
8730 8731 1
8730 8732 1
8730 8733 1
8730 8735 1
8730 8766 1
8730 8767 1
8731 8732 1
8731 8766 1
8731 9346 1
8731 9347 1
8732 8733 1
8732 8735 1
8732 9301 1
8732 9346 1
8732 9347 1
8732 9350 1
8733 8734 1
8733 8735 1
8733 8736 1
8734 8735 1
8734 8736 1
8734 8737 1
8734 8739 1
8734 8767 1
8734 8770 1
8734 8771 1
8735 8736 1
8735 8766 1
8735 8767 1
8735 8770 1
8735 9347 1
8735 9350 1
8735 9351 1
8735 9384 1
8736 8737 1
8736 8739 1
8736 9305 1
8736 9350 1
8736 9351 1
8736 9354 1
8737 8738 1
8737 8739 1
8737 8740 1
8738 8739 1
8738 8740 1
8738 8741 1
8738 8743 1
8738 8771 1
8738 8774 1
8738 8775 1
8739 8740 1
8739 8770 1
8739 8771 1
8739 8774 1
8739 9351 1
8739 9354 1
8739 9355 1
8739 9388 1
8740 8741 1
8740 8743 1
8740 9309 1
8740 9354 1
8740 9355 1
8740 9358 1
8741 8742 1
8741 8743 1
8741 8744 1
8742 8743 1
8742 8744 1
8742 8745 1
8742 8747 1
8742 8775 1
8742 8778 1
8742 8779 1
8743 8744 1
8743 8774 1
8743 8775 1
8743 8778 1
8743 9355 1
8743 9358 1
8743 9359 1
8743 9392 1
8744 8745 1
8744 8747 1
8744 9313 1
8744 9358 1
8744 9359 1
8744 9362 1
8745 8746 1
8745 8747 1
8745 8748 1
8746 8747 1
8746 8748 1
8746 8779 1
8746 8782 1
8747 8748 1
8747 8778 1
8747 8779 1
8747 8782 1
8747 9359 1
8747 9362 1
8747 9363 1
8747 9396 1
8748 9317 1
8748 9362 1
8748 9363 1
8749 8750 1
8749 8751 1
8749 8752 1
8750 8751 1
8750 8752 1
8750 8753 1
8750 8755 1
8750 8783 1
8750 8786 1
8750 8787 1
8751 8752 1
8751 8783 1
8751 8786 1
8751 9366 1
8751 9367 1
8751 9400 1
8752 8753 1
8752 8755 1
8752 9321 1
8752 9366 1
8752 9367 1
8752 9370 1
8753 8754 1
8753 8755 1
8753 8756 1
8754 8755 1
8754 8756 1
8754 8757 1
8754 8759 1
8754 8787 1
8754 8790 1
8754 8791 1
8755 8756 1
8755 8786 1
8755 8787 1
8755 8790 1
8755 9367 1
8755 9370 1
8755 9371 1
8755 9404 1
8756 8757 1
8756 8759 1
8756 9325 1
8756 9370 1
8756 9371 1
8756 9374 1
8757 8758 1
8757 8759 1
8757 8760 1
8758 8759 1
8758 8760 1
8758 8761 1
8758 8763 1
8758 8791 1
8758 8794 1
8758 8795 1
8759 8760 1
8759 8790 1
8759 8791 1
8759 8794 1
8759 9371 1
8759 9374 1
8759 9375 1
8759 9408 1
8760 8761 1
8760 8763 1
8760 9329 1
8760 9374 1
8760 9375 1
8760 9378 1
8761 8762 1
8761 8763 1
8761 8764 1
8762 8763 1
8762 8764 1
8762 8765 1
8762 8795 1
8763 8764 1
8763 8794 1
8763 8795 1
8763 9375 1
8763 9378 1
8763 9379 1
8763 9412 1
8764 8765 1
8764 9333 1
8764 9378 1
8764 9379 1
8764 9382 1
8766 8767 1
8766 8769 1
8766 9347 1
8766 9384 1
8767 8768 1
8767 8769 1
8767 8770 1
8768 8769 1
8768 8770 1
8768 8771 1
8768 8773 1
8768 8796 1
8768 8797 1
8769 8770 1
8769 8796 1
8769 9384 1
8769 9385 1
8770 8771 1
8770 8773 1
8770 9351 1
8770 9384 1
8770 9385 1
8770 9388 1
8771 8772 1
8771 8773 1
8771 8774 1
8772 8773 1
8772 8774 1
8772 8775 1
8772 8777 1
8772 8797 1
8772 8800 1
8772 8801 1
8773 8774 1
8773 8796 1
8773 8797 1
8773 8800 1
8773 9385 1
8773 9388 1
8773 9389 1
8773 9414 1
8774 8775 1
8774 8777 1
8774 9355 1
8774 9388 1
8774 9389 1
8774 9392 1
8775 8776 1
8775 8777 1
8775 8778 1
8776 8777 1
8776 8778 1
8776 8779 1
8776 8781 1
8776 8801 1
8776 8804 1
8776 8805 1
8777 8778 1
8777 8800 1
8777 8801 1
8777 8804 1
8777 9389 1
8777 9392 1
8777 9393 1
8777 9418 1
8778 8779 1
8778 8781 1
8778 9359 1
8778 9392 1
8778 9393 1
8778 9396 1
8779 8780 1
8779 8781 1
8779 8782 1
8780 8781 1
8780 8782 1
8780 8805 1
8780 8808 1
8781 8782 1
8781 8804 1
8781 8805 1
8781 8808 1
8781 9393 1
8781 9396 1
8781 9397 1
8781 9422 1
8782 9363 1
8782 9396 1
8782 9397 1
8783 8784 1
8783 8785 1
8783 8786 1
8784 8785 1
8784 8786 1
8784 8787 1
8784 8789 1
8784 8809 1
8784 8812 1
8784 8813 1
8785 8786 1
8785 8809 1
8785 8812 1
8785 9400 1
8785 9401 1
8785 9426 1
8786 8787 1
8786 8789 1
8786 9367 1
8786 9400 1
8786 9401 1
8786 9404 1
8787 8788 1
8787 8789 1
8787 8790 1
8788 8789 1
8788 8790 1
8788 8791 1
8788 8793 1
8788 8813 1
8788 8816 1
8788 8817 1
8789 8790 1
8789 8812 1
8789 8813 1
8789 8816 1
8789 9401 1
8789 9404 1
8789 9405 1
8789 9430 1
8790 8791 1
8790 8793 1
8790 9371 1
8790 9404 1
8790 9405 1
8790 9408 1
8791 8792 1
8791 8793 1
8791 8794 1
8792 8793 1
8792 8794 1
8792 8795 1
8792 8817 1
8792 8819 1
8793 8794 1
8793 8816 1
8793 8817 1
8793 8819 1
8793 9405 1
8793 9408 1
8793 9409 1
8793 9434 1
8794 8795 1
8794 9375 1
8794 9408 1
8794 9409 1
8794 9412 1
8796 8797 1
8796 8799 1
8796 9385 1
8796 9414 1
8797 8798 1
8797 8799 1
8797 8800 1
8798 8799 1
8798 8800 1
8798 8801 1
8798 8803 1
8798 8821 1
8798 8822 1
8799 8800 1
8799 8821 1
8799 9414 1
8799 9415 1
8800 8801 1
8800 8803 1
8800 9389 1
8800 9414 1
8800 9415 1
8800 9418 1
8801 8802 1
8801 8803 1
8801 8804 1
8802 8803 1
8802 8804 1
8802 8805 1
8802 8807 1
8802 8822 1
8802 8825 1
8802 8826 1
8803 8804 1
8803 8821 1
8803 8822 1
8803 8825 1
8803 9415 1
8803 9418 1
8803 9419 1
8803 9439 1
8804 8805 1
8804 8807 1
8804 9393 1
8804 9418 1
8804 9419 1
8804 9422 1
8805 8806 1
8805 8807 1
8805 8808 1
8806 8807 1
8806 8808 1
8806 8826 1
8806 8829 1
8807 8808 1
8807 8825 1
8807 8826 1
8807 8829 1
8807 9419 1
8807 9422 1
8807 9423 1
8807 9443 1
8808 9397 1
8808 9422 1
8808 9423 1
8809 8810 1
8809 8811 1
8809 8812 1
8810 8811 1
8810 8812 1
8810 8813 1
8810 8815 1
8810 8830 1
8810 8833 1
8810 8834 1
8811 8812 1
8811 8830 1
8811 8833 1
8811 9426 1
8811 9427 1
8811 9447 1
8812 8813 1
8812 8815 1
8812 9401 1
8812 9426 1
8812 9427 1
8812 9430 1
8813 8814 1
8813 8815 1
8813 8816 1
8814 8815 1
8814 8816 1
8814 8817 1
8814 8818 1
8814 8834 1
8814 8837 1
8814 8838 1
8815 8816 1
8815 8833 1
8815 8834 1
8815 8837 1
8815 9427 1
8815 9430 1
8815 9431 1
8815 9451 1
8816 8817 1
8816 8818 1
8816 9405 1
8816 9430 1
8816 9431 1
8816 9434 1
8817 8818 1
8817 8819 1
8818 8819 1
8818 8837 1
8818 8838 1
8818 9431 1
8818 9434 1
8818 9455 1
8819 9409 1
8819 9434 1
8820 8821 1
8820 8822 1
8820 8824 1
8820 8839 1
8821 8822 1
8821 8824 1
8821 9415 1
8821 9437 1
8821 9439 1
8822 8823 1
8822 8824 1
8822 8825 1
8823 8824 1
8823 8825 1
8823 8826 1
8823 8828 1
8823 8839 1
8823 8842 1
8823 8843 1
8824 8825 1
8824 8839 1
8824 8842 1
8824 9437 1
8824 9439 1
8824 9440 1
8824 9456 1
8825 8826 1
8825 8828 1
8825 9419 1
8825 9439 1
8825 9440 1
8825 9443 1
8826 8827 1
8826 8828 1
8826 8829 1
8827 8828 1
8827 8829 1
8827 8843 1
8827 8846 1
8828 8829 1
8828 8842 1
8828 8843 1
8828 8846 1
8828 9440 1
8828 9443 1
8828 9444 1
8828 9460 1
8829 9423 1
8829 9443 1
8829 9444 1
8830 8831 1
8830 8832 1
8830 8833 1
8831 8832 1
8831 8833 1
8831 8834 1
8831 8836 1
8831 8847 1
8831 8850 1
8831 8851 1
8832 8833 1
8832 8847 1
8832 8850 1
8832 9447 1
8832 9448 1
8832 9464 1
8833 8834 1
8833 8836 1
8833 9427 1
8833 9447 1
8833 9448 1
8833 9451 1
8834 8835 1
8834 8836 1
8834 8837 1
8835 8836 1
8835 8837 1
8835 8838 1
8835 8851 1
8835 8854 1
8836 8837 1
8836 8850 1
8836 8851 1
8836 8854 1
8836 9448 1
8836 9451 1
8836 9452 1
8836 9468 1
8837 8838 1
8837 9431 1
8837 9451 1
8837 9452 1
8837 9455 1
8839 8840 1
8839 8841 1
8839 8842 1
8840 8841 1
8840 8842 1
8840 8843 1
8840 8845 1
8840 8855 1
8840 8857 1
8840 8858 1
8841 8842 1
8841 8855 1
8841 8857 1
8841 9456 1
8841 9457 1
8841 9472 1
8842 8843 1
8842 8845 1
8842 9440 1
8842 9456 1
8842 9457 1
8842 9460 1
8843 8844 1
8843 8845 1
8843 8846 1
8844 8845 1
8844 8846 1
8844 8858 1
8844 8861 1
8845 8846 1
8845 8857 1
8845 8858 1
8845 8861 1
8845 9457 1
8845 9460 1
8845 9461 1
8845 9475 1
8846 9444 1
8846 9460 1
8846 9461 1
8847 8848 1
8847 8849 1
8847 8850 1
8848 8849 1
8848 8850 1
8848 8851 1
8848 8853 1
8848 8862 1
8848 8865 1
8848 8866 1
8849 8850 1
8849 8862 1
8849 8865 1
8849 9464 1
8849 9465 1
8849 9479 1
8850 8851 1
8850 8853 1
8850 9448 1
8850 9464 1
8850 9465 1
8850 9468 1
8851 8852 1
8851 8853 1
8851 8854 1
8852 8853 1
8852 8854 1
8852 8866 1
8852 8868 1
8853 8854 1
8853 8865 1
8853 8866 1
8853 8868 1
8853 9465 1
8853 9468 1
8853 9469 1
8853 9483 1
8854 9452 1
8854 9468 1
8854 9469 1
8855 8856 1
8855 8857 1
8856 8857 1
8856 8858 1
8856 8860 1
8856 8870 1
8856 8871 1
8857 8858 1
8857 8860 1
8857 9457 1
8857 9472 1
8857 9473 1
8857 9475 1
8858 8859 1
8858 8860 1
8858 8861 1
8859 8860 1
8859 8861 1
8859 8871 1
8859 8874 1
8860 8861 1
8860 8870 1
8860 8871 1
8860 8874 1
8860 9473 1
8860 9475 1
8860 9476 1
8860 9488 1
8861 9461 1
8861 9475 1
8861 9476 1
8862 8863 1
8862 8864 1
8862 8865 1
8863 8864 1
8863 8865 1
8863 8866 1
8863 8867 1
8863 8875 1
8863 8878 1
8863 8879 1
8864 8865 1
8864 8875 1
8864 8878 1
8864 9479 1
8864 9480 1
8864 9492 1
8865 8866 1
8865 8867 1
8865 9465 1
8865 9479 1
8865 9480 1
8865 9483 1
8866 8867 1
8866 8868 1
8867 8868 1
8867 8878 1
8867 8879 1
8867 9480 1
8867 9483 1
8867 9496 1
8868 9469 1
8868 9483 1
8869 8870 1
8869 8871 1
8869 8873 1
8869 8882 1
8869 8883 1
8870 8871 1
8870 8873 1
8870 9473 1
8870 9486 1
8870 9488 1
8871 8872 1
8871 8873 1
8871 8874 1
8872 8873 1
8872 8874 1
8872 8883 1
8872 8886 1
8873 8874 1
8873 8882 1
8873 8883 1
8873 8886 1
8873 9486 1
8873 9488 1
8873 9489 1
8873 9500 1
8874 9476 1
8874 9488 1
8874 9489 1
8875 8876 1
8875 8877 1
8875 8878 1
8876 8877 1
8876 8878 1
8876 8879 1
8876 8880 1
8876 8887 1
8876 8890 1
8876 8891 1
8877 8878 1
8877 8887 1
8877 8890 1
8877 9492 1
8877 9493 1
8877 9504 1
8878 8879 1
8878 8880 1
8878 9480 1
8878 9492 1
8878 9493 1
8878 9496 1
8879 8880 1
8880 8890 1
8880 8891 1
8880 8894 1
8880 9493 1
8880 9496 1
8880 9508 1
8881 8882 1
8881 8883 1
8881 8885 1
8881 8897 1
8881 8898 1
8882 8883 1
8882 8885 1
8882 9486 1
8882 9498 1
8882 9500 1
8883 8884 1
8883 8885 1
8883 8886 1
8884 8885 1
8884 8886 1
8884 8898 1
8884 8901 1
8885 8886 1
8885 8897 1
8885 8898 1
8885 8901 1
8885 9498 1
8885 9500 1
8885 9501 1
8885 9515 1
8886 9489 1
8886 9500 1
8886 9501 1
8887 8888 1
8887 8889 1
8887 8890 1
8888 8889 1
8888 8890 1
8888 8891 1
8888 8893 1
8888 8902 1
8888 8905 1
8888 8906 1
8889 8890 1
8889 8902 1
8889 8905 1
8889 9504 1
8889 9505 1
8889 9519 1
8890 8891 1
8890 8893 1
8890 9493 1
8890 9504 1
8890 9505 1
8890 9508 1
8891 8892 1
8891 8893 1
8891 8894 1
8892 8893 1
8892 8894 1
8892 8906 1
8892 8909 1
8893 8894 1
8893 8905 1
8893 8906 1
8893 8909 1
8893 9505 1
8893 9508 1
8893 9509 1
8893 9523 1
8894 9508 1
8894 9509 1
8895 8896 1
8895 8897 1
8895 8898 1
8895 8900 1
8895 8910 1
8895 8913 1
8895 8914 1
8896 8897 1
8896 8910 1
8896 8913 1
8896 9512 1
8896 9527 1
8897 8898 1
8897 8900 1
8897 9498 1
8897 9512 1
8897 9515 1
8898 8899 1
8898 8900 1
8898 8901 1
8899 8900 1
8899 8901 1
8899 8914 1
8899 8917 1
8900 8901 1
8900 8913 1
8900 8914 1
8900 8917 1
8900 9512 1
8900 9515 1
8900 9516 1
8900 9531 1
8901 9501 1
8901 9515 1
8901 9516 1
8902 8903 1
8902 8904 1
8902 8905 1
8903 8904 1
8903 8905 1
8903 8906 1
8903 8908 1
8903 8918 1
8903 8921 1
8903 8922 1
8904 8905 1
8904 8918 1
8904 8921 1
8904 9519 1
8904 9520 1
8904 9535 1
8905 8906 1
8905 8908 1
8905 9505 1
8905 9519 1
8905 9520 1
8905 9523 1
8906 8907 1
8906 8908 1
8906 8909 1
8907 8908 1
8907 8909 1
8907 8922 1
8907 8925 1
8907 8926 1
8908 8909 1
8908 8921 1
8908 8922 1
8908 8925 1
8908 9520 1
8908 9523 1
8908 9524 1
8908 9539 1
8909 9509 1
8909 9523 1
8909 9524 1
8910 8911 1
8910 8912 1
8910 8913 1
8911 8912 1
8911 8913 1
8911 8914 1
8911 8916 1
8911 8930 1
8911 8933 1
8911 8934 1
8912 8913 1
8912 8929 1
8912 8930 1
8912 8933 1
8912 9527 1
8912 9528 1
8912 9547 1
8913 8914 1
8913 8916 1
8913 9512 1
8913 9527 1
8913 9528 1
8913 9531 1
8914 8915 1
8914 8916 1
8914 8917 1
8915 8916 1
8915 8917 1
8915 8934 1
8915 8937 1
8916 8917 1
8916 8933 1
8916 8934 1
8916 8937 1
8916 9528 1
8916 9531 1
8916 9532 1
8916 9551 1
8917 9516 1
8917 9531 1
8917 9532 1
8918 8919 1
8918 8920 1
8918 8921 1
8919 8920 1
8919 8921 1
8919 8922 1
8919 8924 1
8919 8938 1
8919 8941 1
8919 8942 1
8920 8921 1
8920 8938 1
8920 8941 1
8920 9535 1
8920 9536 1
8920 9555 1
8921 8922 1
8921 8924 1
8921 9520 1
8921 9535 1
8921 9536 1
8921 9539 1
8922 8923 1
8922 8924 1
8922 8925 1
8923 8924 1
8923 8925 1
8923 8926 1
8923 8927 1
8923 8942 1
8923 8945 1
8923 8946 1
8924 8925 1
8924 8941 1
8924 8942 1
8924 8945 1
8924 9536 1
8924 9539 1
8924 9540 1
8924 9559 1
8925 8926 1
8925 8927 1
8925 9524 1
8925 9539 1
8925 9540 1
8925 9543 1
8926 8927 1
8927 8945 1
8927 8946 1
8927 8949 1
8927 9540 1
8927 9543 1
8927 9563 1
8928 8929 1
8928 8930 1
8928 8932 1
8928 8952 1
8928 8955 1
8928 8956 1
8929 8930 1
8929 8932 1
8929 9545 1
8929 9547 1
8930 8931 1
8930 8932 1
8930 8933 1
8931 8932 1
8931 8933 1
8931 8934 1
8931 8936 1
8931 8956 1
8931 8959 1
8931 8960 1
8932 8933 1
8932 8955 1
8932 8956 1
8932 8959 1
8932 9545 1
8932 9547 1
8932 9548 1
8932 9573 1
8933 8934 1
8933 8936 1
8933 9528 1
8933 9547 1
8933 9548 1
8933 9551 1
8934 8935 1
8934 8936 1
8934 8937 1
8935 8936 1
8935 8937 1
8935 8960 1
8935 8963 1
8936 8937 1
8936 8959 1
8936 8960 1
8936 8963 1
8936 9548 1
8936 9551 1
8936 9552 1
8936 9577 1
8937 9532 1
8937 9551 1
8937 9552 1
8938 8939 1
8938 8940 1
8938 8941 1
8939 8940 1
8939 8941 1
8939 8942 1
8939 8944 1
8939 8964 1
8939 8967 1
8939 8968 1
8940 8941 1
8940 8964 1
8940 8967 1
8940 9555 1
8940 9556 1
8940 9581 1
8941 8942 1
8941 8944 1
8941 9536 1
8941 9555 1
8941 9556 1
8941 9559 1
8942 8943 1
8942 8944 1
8942 8945 1
8943 8944 1
8943 8945 1
8943 8946 1
8943 8948 1
8943 8968 1
8943 8971 1
8943 8972 1
8944 8945 1
8944 8967 1
8944 8968 1
8944 8971 1
8944 9556 1
8944 9559 1
8944 9560 1
8944 9585 1
8945 8946 1
8945 8948 1
8945 9540 1
8945 9559 1
8945 9560 1
8945 9563 1
8946 8947 1
8946 8948 1
8946 8949 1
8947 8948 1
8947 8949 1
8947 8950 1
8947 8972 1
8947 8975 1
8947 8976 1
8948 8949 1
8948 8971 1
8948 8972 1
8948 8975 1
8948 9560 1
8948 9563 1
8948 9564 1
8948 9589 1
8949 8950 1
8949 9563 1
8949 9564 1
8950 8975 1
8950 8976 1
8950 8979 1
8950 9564 1
8950 9593 1
8951 8952 1
8951 8954 1
8951 8984 1
8951 8985 1
8952 8953 1
8952 8954 1
8952 8955 1
8953 8954 1
8953 8955 1
8953 8956 1
8953 8958 1
8953 8985 1
8953 8988 1
8953 8989 1
8954 8955 1
8954 8984 1
8954 8985 1
8954 8988 1
8954 9568 1
8954 9569 1
8954 9570 1
8954 9602 1
8955 8956 1
8955 8958 1
8955 9545 1
8955 9569 1
8955 9570 1
8955 9573 1
8956 8957 1
8956 8958 1
8956 8959 1
8957 8958 1
8957 8959 1
8957 8960 1
8957 8962 1
8957 8989 1
8957 8992 1
8957 8993 1
8958 8959 1
8958 8988 1
8958 8989 1
8958 8992 1
8958 9570 1
8958 9573 1
8958 9574 1
8958 9606 1
8959 8960 1
8959 8962 1
8959 9548 1
8959 9573 1
8959 9574 1
8959 9577 1
8960 8961 1
8960 8962 1
8960 8963 1
8961 8962 1
8961 8963 1
8961 8993 1
8961 8996 1
8962 8963 1
8962 8992 1
8962 8993 1
8962 8996 1
8962 9574 1
8962 9577 1
8962 9578 1
8962 9610 1
8963 9552 1
8963 9577 1
8963 9578 1
8964 8965 1
8964 8966 1
8964 8967 1
8965 8966 1
8965 8967 1
8965 8968 1
8965 8970 1
8965 8997 1
8965 9000 1
8965 9001 1
8966 8967 1
8966 8997 1
8966 9000 1
8966 9581 1
8966 9582 1
8966 9614 1
8967 8968 1
8967 8970 1
8967 9556 1
8967 9581 1
8967 9582 1
8967 9585 1
8968 8969 1
8968 8970 1
8968 8971 1
8969 8970 1
8969 8971 1
8969 8972 1
8969 8974 1
8969 9001 1
8969 9004 1
8969 9005 1
8970 8971 1
8970 9000 1
8970 9001 1
8970 9004 1
8970 9582 1
8970 9585 1
8970 9586 1
8970 9618 1
8971 8972 1
8971 8974 1
8971 9560 1
8971 9585 1
8971 9586 1
8971 9589 1
8972 8973 1
8972 8974 1
8972 8975 1
8973 8974 1
8973 8975 1
8973 8976 1
8973 8978 1
8973 9005 1
8973 9008 1
8973 9009 1
8974 8975 1
8974 9004 1
8974 9005 1
8974 9008 1
8974 9586 1
8974 9589 1
8974 9590 1
8974 9622 1
8975 8976 1
8975 8978 1
8975 9564 1
8975 9589 1
8975 9590 1
8975 9593 1
8976 8977 1
8976 8978 1
8976 8979 1
8977 8978 1
8977 8979 1
8977 8980 1
8977 9009 1
8977 9012 1
8977 9013 1
8978 8979 1
8978 9008 1
8978 9009 1
8978 9012 1
8978 9590 1
8978 9593 1
8978 9594 1
8978 9626 1
8979 8980 1
8979 9593 1
8979 9594 1
8980 9012 1
8980 9013 1
8980 9016 1
8980 9594 1
8980 9630 1
8981 8983 1
8981 9021 1
8981 9024 1
8981 9025 1
8982 8983 1
8982 8984 1
8982 8985 1
8982 8987 1
8982 9025 1
8982 9028 1
8982 9029 1
8983 8984 1
8983 9024 1
8983 9025 1
8983 9028 1
8983 9598 1
8983 9599 1
8983 9642 1
8984 8985 1
8984 8987 1
8984 9568 1
8984 9599 1
8984 9602 1
8985 8986 1
8985 8987 1
8985 8988 1
8986 8987 1
8986 8988 1
8986 8989 1
8986 8991 1
8986 9029 1
8986 9032 1
8986 9033 1
8987 8988 1
8987 9028 1
8987 9029 1
8987 9032 1
8987 9599 1
8987 9602 1
8987 9603 1
8987 9646 1
8988 8989 1
8988 8991 1
8988 9570 1
8988 9602 1
8988 9603 1
8988 9606 1
8989 8990 1
8989 8991 1
8989 8992 1
8990 8991 1
8990 8992 1
8990 8993 1
8990 8995 1
8990 9033 1
8990 9036 1
8990 9037 1
8991 8992 1
8991 9032 1
8991 9033 1
8991 9036 1
8991 9603 1
8991 9606 1
8991 9607 1
8991 9650 1
8992 8993 1
8992 8995 1
8992 9574 1
8992 9606 1
8992 9607 1
8992 9610 1
8993 8994 1
8993 8995 1
8993 8996 1
8994 8995 1
8994 8996 1
8994 9037 1
8994 9040 1
8995 8996 1
8995 9036 1
8995 9037 1
8995 9040 1
8995 9607 1
8995 9610 1
8995 9611 1
8995 9654 1
8996 9578 1
8996 9610 1
8996 9611 1
8997 8998 1
8997 8999 1
8997 9000 1
8998 8999 1
8998 9000 1
8998 9001 1
8998 9003 1
8998 9041 1
8998 9044 1
8998 9045 1
8999 9000 1
8999 9041 1
8999 9044 1
8999 9614 1
8999 9615 1
8999 9658 1
9000 9001 1
9000 9003 1
9000 9582 1
9000 9614 1
9000 9615 1
9000 9618 1
9001 9002 1
9001 9003 1
9001 9004 1
9002 9003 1
9002 9004 1
9002 9005 1
9002 9007 1
9002 9045 1
9002 9048 1
9002 9049 1
9003 9004 1
9003 9044 1
9003 9045 1
9003 9048 1
9003 9615 1
9003 9618 1
9003 9619 1
9003 9662 1
9004 9005 1
9004 9007 1
9004 9586 1
9004 9618 1
9004 9619 1
9004 9622 1
9005 9006 1
9005 9007 1
9005 9008 1
9006 9007 1
9006 9008 1
9006 9009 1
9006 9011 1
9006 9049 1
9006 9052 1
9006 9053 1
9007 9008 1
9007 9048 1
9007 9049 1
9007 9052 1
9007 9619 1
9007 9622 1
9007 9623 1
9007 9666 1
9008 9009 1
9008 9011 1
9008 9590 1
9008 9622 1
9008 9623 1
9008 9626 1
9009 9010 1
9009 9011 1
9009 9012 1
9010 9011 1
9010 9012 1
9010 9013 1
9010 9015 1
9010 9053 1
9010 9056 1
9010 9057 1
9011 9012 1
9011 9052 1
9011 9053 1
9011 9056 1
9011 9623 1
9011 9626 1
9011 9627 1
9011 9670 1
9012 9013 1
9012 9015 1
9012 9594 1
9012 9626 1
9012 9627 1
9012 9630 1
9013 9014 1
9013 9015 1
9013 9016 1
9014 9015 1
9014 9016 1
9014 9018 1
9014 9057 1
9014 9060 1
9014 9061 1
9015 9016 1
9015 9056 1
9015 9057 1
9015 9060 1
9015 9627 1
9015 9630 1
9015 9631 1
9015 9674 1
9016 9018 1
9016 9630 1
9016 9631 1
9017 9018 1
9017 9061 1
9017 9064 1
9017 9065 1
9018 9060 1
9018 9061 1
9018 9064 1
9018 9631 1
9018 9634 1
9018 9678 1
9019 9020 1
9019 9021 1
9019 9023 1
9019 9083 1
9019 9086 1
9019 9087 1
9020 9082 1
9020 9083 1
9020 9086 1
9020 9636 1
9020 9700 1
9021 9022 1
9021 9023 1
9021 9024 1
9022 9023 1
9022 9024 1
9022 9025 1
9022 9027 1
9022 9087 1
9022 9090 1
9022 9091 1
9023 9024 1
9023 9086 1
9023 9087 1
9023 9090 1
9023 9636 1
9023 9638 1
9023 9639 1
9023 9704 1
9024 9025 1
9024 9027 1
9024 9598 1
9024 9638 1
9024 9639 1
9024 9642 1
9025 9026 1
9025 9027 1
9025 9028 1
9026 9027 1
9026 9028 1
9026 9029 1
9026 9031 1
9026 9091 1
9026 9094 1
9026 9095 1
9027 9028 1
9027 9090 1
9027 9091 1
9027 9094 1
9027 9639 1
9027 9642 1
9027 9643 1
9027 9708 1
9028 9029 1
9028 9031 1
9028 9599 1
9028 9642 1
9028 9643 1
9028 9646 1
9029 9030 1
9029 9031 1
9029 9032 1
9030 9031 1
9030 9032 1
9030 9033 1
9030 9035 1
9030 9095 1
9030 9098 1
9030 9099 1
9031 9032 1
9031 9094 1
9031 9095 1
9031 9098 1
9031 9643 1
9031 9646 1
9031 9647 1
9031 9712 1
9032 9033 1
9032 9035 1
9032 9603 1
9032 9646 1
9032 9647 1
9032 9650 1
9033 9034 1
9033 9035 1
9033 9036 1
9034 9035 1
9034 9036 1
9034 9037 1
9034 9039 1
9034 9099 1
9034 9102 1
9034 9103 1
9035 9036 1
9035 9098 1
9035 9099 1
9035 9102 1
9035 9647 1
9035 9650 1
9035 9651 1
9035 9716 1
9036 9037 1
9036 9039 1
9036 9607 1
9036 9650 1
9036 9651 1
9036 9654 1
9037 9038 1
9037 9039 1
9037 9040 1
9038 9039 1
9038 9040 1
9038 9103 1
9038 9106 1
9039 9040 1
9039 9102 1
9039 9103 1
9039 9106 1
9039 9651 1
9039 9654 1
9039 9655 1
9039 9720 1
9040 9611 1
9040 9654 1
9040 9655 1
9041 9042 1
9041 9043 1
9041 9044 1
9042 9043 1
9042 9044 1
9042 9045 1
9042 9047 1
9042 9107 1
9042 9110 1
9042 9111 1
9043 9044 1
9043 9107 1
9043 9110 1
9043 9658 1
9043 9659 1
9043 9724 1
9044 9045 1
9044 9047 1
9044 9615 1
9044 9658 1
9044 9659 1
9044 9662 1
9045 9046 1
9045 9047 1
9045 9048 1
9046 9047 1
9046 9048 1
9046 9049 1
9046 9051 1
9046 9111 1
9046 9114 1
9046 9115 1
9047 9048 1
9047 9110 1
9047 9111 1
9047 9114 1
9047 9659 1
9047 9662 1
9047 9663 1
9047 9728 1
9048 9049 1
9048 9051 1
9048 9619 1
9048 9662 1
9048 9663 1
9048 9666 1
9049 9050 1
9049 9051 1
9049 9052 1
9050 9051 1
9050 9052 1
9050 9053 1
9050 9055 1
9050 9115 1
9050 9118 1
9050 9119 1
9051 9052 1
9051 9114 1
9051 9115 1
9051 9118 1
9051 9663 1
9051 9666 1
9051 9667 1
9051 9732 1
9052 9053 1
9052 9055 1
9052 9623 1
9052 9666 1
9052 9667 1
9052 9670 1
9053 9054 1
9053 9055 1
9053 9056 1
9054 9055 1
9054 9056 1
9054 9057 1
9054 9059 1
9054 9119 1
9054 9122 1
9054 9123 1
9055 9056 1
9055 9118 1
9055 9119 1
9055 9122 1
9055 9667 1
9055 9670 1
9055 9671 1
9055 9736 1
9056 9057 1
9056 9059 1
9056 9627 1
9056 9670 1
9056 9671 1
9056 9674 1
9057 9058 1
9057 9059 1
9057 9060 1
9058 9059 1
9058 9060 1
9058 9061 1
9058 9063 1
9058 9123 1
9058 9126 1
9058 9127 1
9059 9060 1
9059 9122 1
9059 9123 1
9059 9126 1
9059 9671 1
9059 9674 1
9059 9675 1
9059 9740 1
9060 9061 1
9060 9063 1
9060 9631 1
9060 9674 1
9060 9675 1
9060 9678 1
9061 9062 1
9061 9063 1
9061 9064 1
9062 9063 1
9062 9064 1
9062 9065 1
9062 9067 1
9062 9127 1
9062 9130 1
9062 9131 1
9063 9064 1
9063 9126 1
9063 9127 1
9063 9130 1
9063 9675 1
9063 9678 1
9063 9679 1
9063 9744 1
9064 9065 1
9064 9067 1
9064 9634 1
9064 9678 1
9064 9679 1
9064 9682 1
9065 9066 1
9065 9067 1
9065 9068 1
9066 9067 1
9066 9068 1
9066 9069 1
9066 9071 1
9066 9131 1
9066 9134 1
9066 9135 1
9067 9068 1
9067 9130 1
9067 9131 1
9067 9134 1
9067 9679 1
9067 9682 1
9067 9683 1
9067 9748 1
9068 9069 1
9068 9071 1
9068 9682 1
9068 9683 1
9068 9686 1
9069 9070 1
9069 9071 1
9070 9071 1
9070 9073 1
9070 9135 1
9070 9138 1
9070 9139 1
9071 9134 1
9071 9135 1
9071 9138 1
9071 9683 1
9071 9686 1
9071 9687 1
9071 9752 1
9072 9073 1
9072 9075 1
9072 9139 1
9072 9142 1
9072 9143 1
9073 9138 1
9073 9139 1
9073 9142 1
9073 9687 1
9073 9689 1
9073 9756 1
9074 9075 1
9074 9077 1
9074 9143 1
9074 9146 1
9074 9147 1
9075 9142 1
9075 9143 1
9075 9146 1
9075 9689 1
9075 9691 1
9075 9760 1
9076 9077 1
9076 9078 1
9076 9079 1
9076 9081 1
9076 9147 1
9076 9150 1
9076 9151 1
9077 9078 1
9077 9146 1
9077 9147 1
9077 9150 1
9077 9691 1
9077 9693 1
9077 9764 1
9078 9079 1
9078 9081 1
9078 9693 1
9078 9696 1
9079 9080 1
9079 9081 1
9079 9082 1
9080 9081 1
9080 9082 1
9080 9083 1
9080 9085 1
9080 9151 1
9080 9154 1
9080 9155 1
9081 9082 1
9081 9150 1
9081 9151 1
9081 9154 1
9081 9693 1
9081 9696 1
9081 9697 1
9081 9768 1
9082 9083 1
9082 9085 1
9082 9696 1
9082 9697 1
9082 9700 1
9083 9084 1
9083 9085 1
9083 9086 1
9084 9085 1
9084 9086 1
9084 9087 1
9084 9089 1
9084 9155 1
9084 9158 1
9084 9159 1
9085 9086 1
9085 9154 1
9085 9155 1
9085 9158 1
9085 9697 1
9085 9700 1
9085 9701 1
9085 9772 1
9086 9087 1
9086 9089 1
9086 9636 1
9086 9700 1
9086 9701 1
9086 9704 1
9087 9088 1
9087 9089 1
9087 9090 1
9088 9089 1
9088 9090 1
9088 9091 1
9088 9093 1
9088 9159 1
9088 9162 1
9088 9163 1
9089 9090 1
9089 9158 1
9089 9159 1
9089 9162 1
9089 9701 1
9089 9704 1
9089 9705 1
9089 9776 1
9090 9091 1
9090 9093 1
9090 9639 1
9090 9704 1
9090 9705 1
9090 9708 1
9091 9092 1
9091 9093 1
9091 9094 1
9092 9093 1
9092 9094 1
9092 9095 1
9092 9097 1
9092 9163 1
9092 9166 1
9092 9167 1
9093 9094 1
9093 9162 1
9093 9163 1
9093 9166 1
9093 9705 1
9093 9708 1
9093 9709 1
9093 9780 1
9094 9095 1
9094 9097 1
9094 9643 1
9094 9708 1
9094 9709 1
9094 9712 1
9095 9096 1
9095 9097 1
9095 9098 1
9096 9097 1
9096 9098 1
9096 9099 1
9096 9101 1
9096 9167 1
9096 9170 1
9096 9171 1
9097 9098 1
9097 9166 1
9097 9167 1
9097 9170 1
9097 9709 1
9097 9712 1
9097 9713 1
9097 9784 1
9098 9099 1
9098 9101 1
9098 9647 1
9098 9712 1
9098 9713 1
9098 9716 1
9099 9100 1
9099 9101 1
9099 9102 1
9100 9101 1
9100 9102 1
9100 9103 1
9100 9105 1
9100 9171 1
9100 9174 1
9100 9175 1
9101 9102 1
9101 9170 1
9101 9171 1
9101 9174 1
9101 9713 1
9101 9716 1
9101 9717 1
9101 9788 1
9102 9103 1
9102 9105 1
9102 9651 1
9102 9716 1
9102 9717 1
9102 9720 1
9103 9104 1
9103 9105 1
9103 9106 1
9104 9105 1
9104 9106 1
9104 9175 1
9104 9178 1
9105 9106 1
9105 9174 1
9105 9175 1
9105 9178 1
9105 9717 1
9105 9720 1
9105 9721 1
9105 9792 1
9106 9655 1
9106 9720 1
9106 9721 1
9107 9108 1
9107 9109 1
9107 9110 1
9108 9109 1
9108 9110 1
9108 9111 1
9108 9113 1
9109 9110 1
9109 9724 1
9109 9725 1
9110 9111 1
9110 9113 1
9110 9659 1
9110 9724 1
9110 9725 1
9110 9728 1
9111 9112 1
9111 9113 1
9111 9114 1
9112 9113 1
9112 9114 1
9112 9115 1
9112 9117 1
9113 9114 1
9113 9725 1
9113 9728 1
9113 9729 1
9114 9115 1
9114 9117 1
9114 9663 1
9114 9728 1
9114 9729 1
9114 9732 1
9115 9116 1
9115 9117 1
9115 9118 1
9116 9117 1
9116 9118 1
9116 9119 1
9116 9121 1
9117 9118 1
9117 9729 1
9117 9732 1
9117 9733 1
9118 9119 1
9118 9121 1
9118 9667 1
9118 9732 1
9118 9733 1
9118 9736 1
9119 9120 1
9119 9121 1
9119 9122 1
9120 9121 1
9120 9122 1
9120 9123 1
9120 9125 1
9121 9122 1
9121 9733 1
9121 9736 1
9121 9737 1
9122 9123 1
9122 9125 1
9122 9671 1
9122 9736 1
9122 9737 1
9122 9740 1
9123 9124 1
9123 9125 1
9123 9126 1
9124 9125 1
9124 9126 1
9124 9127 1
9124 9129 1
9125 9126 1
9125 9737 1
9125 9740 1
9125 9741 1
9126 9127 1
9126 9129 1
9126 9675 1
9126 9740 1
9126 9741 1
9126 9744 1
9127 9128 1
9127 9129 1
9127 9130 1
9128 9129 1
9128 9130 1
9128 9131 1
9128 9133 1
9129 9130 1
9129 9741 1
9129 9744 1
9129 9745 1
9130 9131 1
9130 9133 1
9130 9679 1
9130 9744 1
9130 9745 1
9130 9748 1
9131 9132 1
9131 9133 1
9131 9134 1
9132 9133 1
9132 9134 1
9132 9135 1
9132 9137 1
9133 9134 1
9133 9745 1
9133 9748 1
9133 9749 1
9134 9135 1
9134 9137 1
9134 9683 1
9134 9748 1
9134 9749 1
9134 9752 1
9135 9136 1
9135 9137 1
9135 9138 1
9136 9137 1
9136 9138 1
9136 9139 1
9136 9141 1
9137 9138 1
9137 9749 1
9137 9752 1
9137 9753 1
9138 9139 1
9138 9141 1
9138 9687 1
9138 9752 1
9138 9753 1
9138 9756 1
9139 9140 1
9139 9141 1
9139 9142 1
9140 9141 1
9140 9142 1
9140 9143 1
9140 9145 1
9141 9142 1
9141 9753 1
9141 9756 1
9141 9757 1
9142 9143 1
9142 9145 1
9142 9689 1
9142 9756 1
9142 9757 1
9142 9760 1
9143 9144 1
9143 9145 1
9143 9146 1
9144 9145 1
9144 9146 1
9144 9147 1
9144 9149 1
9145 9146 1
9145 9757 1
9145 9760 1
9145 9761 1
9146 9147 1
9146 9149 1
9146 9691 1
9146 9760 1
9146 9761 1
9146 9764 1
9147 9148 1
9147 9149 1
9147 9150 1
9148 9149 1
9148 9150 1
9148 9151 1
9148 9153 1
9149 9150 1
9149 9761 1
9149 9764 1
9149 9765 1
9150 9151 1
9150 9153 1
9150 9693 1
9150 9764 1
9150 9765 1
9150 9768 1
9151 9152 1
9151 9153 1
9151 9154 1
9152 9153 1
9152 9154 1
9152 9155 1
9152 9157 1
9153 9154 1
9153 9765 1
9153 9768 1
9153 9769 1
9154 9155 1
9154 9157 1
9154 9697 1
9154 9768 1
9154 9769 1
9154 9772 1
9155 9156 1
9155 9157 1
9155 9158 1
9156 9157 1
9156 9158 1
9156 9159 1
9156 9161 1
9157 9158 1
9157 9769 1
9157 9772 1
9157 9773 1
9158 9159 1
9158 9161 1
9158 9701 1
9158 9772 1
9158 9773 1
9158 9776 1
9159 9160 1
9159 9161 1
9159 9162 1
9160 9161 1
9160 9162 1
9160 9163 1
9160 9165 1
9161 9162 1
9161 9773 1
9161 9776 1
9161 9777 1
9162 9163 1
9162 9165 1
9162 9705 1
9162 9776 1
9162 9777 1
9162 9780 1
9163 9164 1
9163 9165 1
9163 9166 1
9164 9165 1
9164 9166 1
9164 9167 1
9164 9169 1
9165 9166 1
9165 9777 1
9165 9780 1
9165 9781 1
9166 9167 1
9166 9169 1
9166 9709 1
9166 9780 1
9166 9781 1
9166 9784 1
9167 9168 1
9167 9169 1
9167 9170 1
9168 9169 1
9168 9170 1
9168 9171 1
9168 9173 1
9169 9170 1
9169 9781 1
9169 9784 1
9169 9785 1
9170 9171 1
9170 9173 1
9170 9713 1
9170 9784 1
9170 9785 1
9170 9788 1
9171 9172 1
9171 9173 1
9171 9174 1
9172 9173 1
9172 9174 1
9172 9175 1
9172 9177 1
9173 9174 1
9173 9785 1
9173 9788 1
9173 9789 1
9174 9175 1
9174 9177 1
9174 9717 1
9174 9788 1
9174 9789 1
9174 9792 1
9175 9176 1
9175 9177 1
9175 9178 1
9176 9177 1
9176 9178 1
9177 9178 1
9177 9789 1
9177 9792 1
9177 9793 1
9178 9721 1
9178 9792 1
9178 9793 1
9179 9180 1
9179 9181 1
9179 9182 1
9180 9181 1
9180 9182 1
9180 9183 1
9180 9185 1
9180 9251 1
9180 9254 1
9180 9255 1
9181 9182 1
9181 9251 1
9181 9254 1
9181 9796 1
9181 9797 1
9181 9868 1
9182 9183 1
9182 9185 1
9182 9796 1
9182 9797 1
9182 9800 1
9183 9184 1
9183 9185 1
9183 9186 1
9184 9185 1
9184 9186 1
9184 9187 1
9184 9189 1
9184 9255 1
9184 9258 1
9184 9259 1
9185 9186 1
9185 9254 1
9185 9255 1
9185 9258 1
9185 9797 1
9185 9800 1
9185 9801 1
9185 9872 1
9186 9187 1
9186 9189 1
9186 9800 1
9186 9801 1
9186 9804 1
9187 9188 1
9187 9189 1
9187 9190 1
9188 9189 1
9188 9190 1
9188 9191 1
9188 9193 1
9188 9259 1
9188 9262 1
9188 9263 1
9189 9190 1
9189 9258 1
9189 9259 1
9189 9262 1
9189 9801 1
9189 9804 1
9189 9805 1
9189 9876 1
9190 9191 1
9190 9193 1
9190 9804 1
9190 9805 1
9190 9808 1
9191 9192 1
9191 9193 1
9191 9194 1
9192 9193 1
9192 9194 1
9192 9195 1
9192 9197 1
9192 9263 1
9192 9266 1
9192 9267 1
9193 9194 1
9193 9262 1
9193 9263 1
9193 9266 1
9193 9805 1
9193 9808 1
9193 9809 1
9193 9880 1
9194 9195 1
9194 9197 1
9194 9808 1
9194 9809 1
9194 9812 1
9195 9196 1
9195 9197 1
9195 9198 1
9196 9197 1
9196 9198 1
9196 9199 1
9196 9201 1
9196 9267 1
9196 9270 1
9196 9271 1
9197 9198 1
9197 9266 1
9197 9267 1
9197 9270 1
9197 9809 1
9197 9812 1
9197 9813 1
9197 9884 1
9198 9199 1
9198 9201 1
9198 9812 1
9198 9813 1
9198 9816 1
9199 9200 1
9199 9201 1
9199 9202 1
9200 9201 1
9200 9202 1
9200 9203 1
9200 9205 1
9200 9271 1
9200 9274 1
9200 9275 1
9201 9202 1
9201 9270 1
9201 9271 1
9201 9274 1
9201 9813 1
9201 9816 1
9201 9817 1
9201 9888 1
9202 9203 1
9202 9205 1
9202 9816 1
9202 9817 1
9202 9820 1
9203 9204 1
9203 9205 1
9203 9206 1
9204 9205 1
9204 9206 1
9204 9207 1
9204 9209 1
9204 9275 1
9204 9278 1
9204 9279 1
9205 9206 1
9205 9274 1
9205 9275 1
9205 9278 1
9205 9817 1
9205 9820 1
9205 9821 1
9205 9892 1
9206 9207 1
9206 9209 1
9206 9820 1
9206 9821 1
9206 9824 1
9207 9208 1
9207 9209 1
9207 9210 1
9208 9209 1
9208 9210 1
9208 9211 1
9208 9213 1
9208 9279 1
9208 9282 1
9208 9283 1
9209 9210 1
9209 9278 1
9209 9279 1
9209 9282 1
9209 9821 1
9209 9824 1
9209 9825 1
9209 9896 1
9210 9211 1
9210 9213 1
9210 9824 1
9210 9825 1
9210 9828 1
9211 9212 1
9211 9213 1
9211 9214 1
9212 9213 1
9212 9214 1
9212 9215 1
9212 9217 1
9212 9283 1
9212 9285 1
9212 9286 1
9213 9214 1
9213 9282 1
9213 9283 1
9213 9285 1
9213 9825 1
9213 9828 1
9213 9829 1
9213 9900 1
9214 9215 1
9214 9217 1
9214 9828 1
9214 9829 1
9214 9832 1
9215 9216 1
9215 9217 1
9215 9218 1
9216 9217 1
9216 9218 1
9216 9219 1
9216 9221 1
9216 9286 1
9216 9287 1
9216 9288 1
9217 9218 1
9217 9285 1
9217 9286 1
9217 9287 1
9217 9829 1
9217 9832 1
9217 9833 1
9217 9903 1
9218 9219 1
9218 9221 1
9218 9832 1
9218 9833 1
9218 9836 1
9219 9220 1
9219 9221 1
9219 9222 1
9220 9221 1
9220 9222 1
9220 9223 1
9220 9225 1
9220 9288 1
9220 9291 1
9220 9292 1
9221 9222 1
9221 9287 1
9221 9288 1
9221 9291 1
9221 9833 1
9221 9836 1
9221 9837 1
9221 9905 1
9222 9223 1
9222 9225 1
9222 9836 1
9222 9837 1
9222 9840 1
9223 9224 1
9223 9225 1
9223 9226 1
9224 9225 1
9224 9226 1
9224 9227 1
9224 9229 1
9224 9292 1
9224 9295 1
9224 9296 1
9225 9226 1
9225 9291 1
9225 9292 1
9225 9295 1
9225 9837 1
9225 9840 1
9225 9841 1
9225 9909 1
9226 9227 1
9226 9229 1
9226 9840 1
9226 9841 1
9226 9844 1
9227 9228 1
9227 9229 1
9227 9230 1
9228 9229 1
9228 9230 1
9228 9231 1
9228 9233 1
9228 9296 1
9228 9299 1
9228 9300 1
9229 9230 1
9229 9295 1
9229 9296 1
9229 9299 1
9229 9841 1
9229 9844 1
9229 9845 1
9229 9913 1
9230 9231 1
9230 9233 1
9230 9844 1
9230 9845 1
9230 9848 1
9231 9232 1
9231 9233 1
9231 9234 1
9232 9233 1
9232 9234 1
9232 9235 1
9232 9237 1
9232 9300 1
9232 9303 1
9232 9304 1
9233 9234 1
9233 9299 1
9233 9300 1
9233 9303 1
9233 9845 1
9233 9848 1
9233 9849 1
9233 9917 1
9234 9235 1
9234 9237 1
9234 9848 1
9234 9849 1
9234 9852 1
9235 9236 1
9235 9237 1
9235 9238 1
9236 9237 1
9236 9238 1
9236 9239 1
9236 9241 1
9236 9304 1
9236 9307 1
9236 9308 1
9237 9238 1
9237 9303 1
9237 9304 1
9237 9307 1
9237 9849 1
9237 9852 1
9237 9853 1
9237 9921 1
9238 9239 1
9238 9241 1
9238 9852 1
9238 9853 1
9238 9856 1
9239 9240 1
9239 9241 1
9239 9242 1
9240 9241 1
9240 9242 1
9240 9243 1
9240 9245 1
9240 9308 1
9240 9311 1
9240 9312 1
9241 9242 1
9241 9307 1
9241 9308 1
9241 9311 1
9241 9853 1
9241 9856 1
9241 9857 1
9241 9925 1
9242 9243 1
9242 9245 1
9242 9856 1
9242 9857 1
9242 9860 1
9243 9244 1
9243 9245 1
9243 9246 1
9244 9245 1
9244 9246 1
9244 9247 1
9244 9249 1
9244 9312 1
9244 9315 1
9244 9316 1
9245 9246 1
9245 9311 1
9245 9312 1
9245 9315 1
9245 9857 1
9245 9860 1
9245 9861 1
9245 9929 1
9246 9247 1
9246 9249 1
9246 9860 1
9246 9861 1
9246 9864 1
9247 9248 1
9247 9249 1
9247 9250 1
9248 9249 1
9248 9250 1
9248 9316 1
9248 9319 1
9249 9250 1
9249 9315 1
9249 9316 1
9249 9319 1
9249 9861 1
9249 9864 1
9249 9865 1
9249 9933 1
9250 9864 1
9250 9865 1
9251 9252 1
9251 9253 1
9251 9254 1
9252 9253 1
9252 9254 1
9252 9255 1
9252 9257 1
9252 9320 1
9252 9323 1
9252 9324 1
9253 9254 1
9253 9320 1
9253 9323 1
9253 9868 1
9253 9869 1
9253 9937 1
9254 9255 1
9254 9257 1
9254 9797 1
9254 9868 1
9254 9869 1
9254 9872 1
9255 9256 1
9255 9257 1
9255 9258 1
9256 9257 1
9256 9258 1
9256 9259 1
9256 9261 1
9256 9324 1
9256 9327 1
9256 9328 1
9257 9258 1
9257 9323 1
9257 9324 1
9257 9327 1
9257 9869 1
9257 9872 1
9257 9873 1
9257 9941 1
9258 9259 1
9258 9261 1
9258 9801 1
9258 9872 1
9258 9873 1
9258 9876 1
9259 9260 1
9259 9261 1
9259 9262 1
9260 9261 1
9260 9262 1
9260 9263 1
9260 9265 1
9260 9328 1
9260 9331 1
9260 9332 1
9261 9262 1
9261 9327 1
9261 9328 1
9261 9331 1
9261 9873 1
9261 9876 1
9261 9877 1
9261 9945 1
9262 9263 1
9262 9265 1
9262 9805 1
9262 9876 1
9262 9877 1
9262 9880 1
9263 9264 1
9263 9265 1
9263 9266 1
9264 9265 1
9264 9266 1
9264 9267 1
9264 9269 1
9264 9332 1
9264 9335 1
9264 9336 1
9265 9266 1
9265 9331 1
9265 9332 1
9265 9335 1
9265 9877 1
9265 9880 1
9265 9881 1
9265 9949 1
9266 9267 1
9266 9269 1
9266 9809 1
9266 9880 1
9266 9881 1
9266 9884 1
9267 9268 1
9267 9269 1
9267 9270 1
9268 9269 1
9268 9270 1
9268 9271 1
9268 9273 1
9268 9336 1
9268 9339 1
9268 9340 1
9269 9270 1
9269 9335 1
9269 9336 1
9269 9339 1
9269 9881 1
9269 9884 1
9269 9885 1
9269 9953 1
9270 9271 1
9270 9273 1
9270 9813 1
9270 9884 1
9270 9885 1
9270 9888 1
9271 9272 1
9271 9273 1
9271 9274 1
9272 9273 1
9272 9274 1
9272 9275 1
9272 9277 1
9272 9340 1
9272 9342 1
9272 9343 1
9273 9274 1
9273 9339 1
9273 9340 1
9273 9342 1
9273 9885 1
9273 9888 1
9273 9889 1
9273 9957 1
9274 9275 1
9274 9277 1
9274 9817 1
9274 9888 1
9274 9889 1
9274 9892 1
9275 9276 1
9275 9277 1
9275 9278 1
9276 9277 1
9276 9278 1
9276 9279 1
9276 9281 1
9276 9343 1
9277 9278 1
9277 9342 1
9277 9343 1
9277 9889 1
9277 9892 1
9277 9893 1
9277 9960 1
9278 9279 1
9278 9281 1
9278 9821 1
9278 9892 1
9278 9893 1
9278 9896 1
9279 9280 1
9279 9281 1
9279 9282 1
9280 9281 1
9280 9282 1
9280 9283 1
9280 9284 1
9281 9282 1
9281 9893 1
9281 9896 1
9281 9897 1
9282 9283 1
9282 9284 1
9282 9825 1
9282 9896 1
9282 9897 1
9282 9900 1
9283 9284 1
9283 9285 1
9284 9285 1
9284 9897 1
9284 9900 1
9285 9286 1
9285 9829 1
9285 9900 1
9285 9903 1
9286 9287 1
9287 9288 1
9287 9290 1
9287 9833 1
9287 9903 1
9287 9905 1
9288 9289 1
9288 9290 1
9288 9291 1
9289 9290 1
9289 9291 1
9289 9292 1
9289 9294 1
9290 9291 1
9290 9905 1
9290 9906 1
9291 9292 1
9291 9294 1
9291 9837 1
9291 9905 1
9291 9906 1
9291 9909 1
9292 9293 1
9292 9294 1
9292 9295 1
9293 9294 1
9293 9295 1
9293 9296 1
9293 9298 1
9293 9344 1
9294 9295 1
9294 9906 1
9294 9909 1
9294 9910 1
9295 9296 1
9295 9298 1
9295 9841 1
9295 9909 1
9295 9910 1
9295 9913 1
9296 9297 1
9296 9298 1
9296 9299 1
9297 9298 1
9297 9299 1
9297 9300 1
9297 9302 1
9297 9344 1
9297 9345 1
9297 9346 1
9298 9299 1
9298 9344 1
9298 9345 1
9298 9910 1
9298 9913 1
9298 9914 1
9298 9961 1
9299 9300 1
9299 9302 1
9299 9845 1
9299 9913 1
9299 9914 1
9299 9917 1
9300 9301 1
9300 9302 1
9300 9303 1
9301 9302 1
9301 9303 1
9301 9304 1
9301 9306 1
9301 9346 1
9301 9349 1
9301 9350 1
9302 9303 1
9302 9345 1
9302 9346 1
9302 9349 1
9302 9914 1
9302 9917 1
9302 9918 1
9302 9963 1
9303 9304 1
9303 9306 1
9303 9849 1
9303 9917 1
9303 9918 1
9303 9921 1
9304 9305 1
9304 9306 1
9304 9307 1
9305 9306 1
9305 9307 1
9305 9308 1
9305 9310 1
9305 9350 1
9305 9353 1
9305 9354 1
9306 9307 1
9306 9349 1
9306 9350 1
9306 9353 1
9306 9918 1
9306 9921 1
9306 9922 1
9306 9967 1
9307 9308 1
9307 9310 1
9307 9853 1
9307 9921 1
9307 9922 1
9307 9925 1
9308 9309 1
9308 9310 1
9308 9311 1
9309 9310 1
9309 9311 1
9309 9312 1
9309 9314 1
9309 9354 1
9309 9357 1
9309 9358 1
9310 9311 1
9310 9353 1
9310 9354 1
9310 9357 1
9310 9922 1
9310 9925 1
9310 9926 1
9310 9971 1
9311 9312 1
9311 9314 1
9311 9857 1
9311 9925 1
9311 9926 1
9311 9929 1
9312 9313 1
9312 9314 1
9312 9315 1
9313 9314 1
9313 9315 1
9313 9316 1
9313 9318 1
9313 9358 1
9313 9361 1
9313 9362 1
9314 9315 1
9314 9357 1
9314 9358 1
9314 9361 1
9314 9926 1
9314 9929 1
9314 9930 1
9314 9975 1
9315 9316 1
9315 9318 1
9315 9861 1
9315 9929 1
9315 9930 1
9315 9933 1
9316 9317 1
9316 9318 1
9316 9319 1
9317 9318 1
9317 9319 1
9317 9362 1
9317 9365 1
9318 9319 1
9318 9361 1
9318 9362 1
9318 9365 1
9318 9930 1
9318 9933 1
9318 9934 1
9318 9979 1
9319 9865 1
9319 9933 1
9319 9934 1
9320 9321 1
9320 9322 1
9320 9323 1
9321 9322 1
9321 9323 1
9321 9324 1
9321 9326 1
9321 9366 1
9321 9369 1
9321 9370 1
9322 9323 1
9322 9366 1
9322 9369 1
9322 9937 1
9322 9938 1
9322 9983 1
9323 9324 1
9323 9326 1
9323 9869 1
9323 9937 1
9323 9938 1
9323 9941 1
9324 9325 1
9324 9326 1
9324 9327 1
9325 9326 1
9325 9327 1
9325 9328 1
9325 9330 1
9325 9370 1
9325 9373 1
9325 9374 1
9326 9327 1
9326 9369 1
9326 9370 1
9326 9373 1
9326 9938 1
9326 9941 1
9326 9942 1
9326 9987 1
9327 9328 1
9327 9330 1
9327 9873 1
9327 9941 1
9327 9942 1
9327 9945 1
9328 9329 1
9328 9330 1
9328 9331 1
9329 9330 1
9329 9331 1
9329 9332 1
9329 9334 1
9329 9374 1
9329 9377 1
9329 9378 1
9330 9331 1
9330 9373 1
9330 9374 1
9330 9377 1
9330 9942 1
9330 9945 1
9330 9946 1
9330 9991 1
9331 9332 1
9331 9334 1
9331 9877 1
9331 9945 1
9331 9946 1
9331 9949 1
9332 9333 1
9332 9334 1
9332 9335 1
9333 9334 1
9333 9335 1
9333 9336 1
9333 9338 1
9333 9378 1
9333 9381 1
9333 9382 1
9334 9335 1
9334 9377 1
9334 9378 1
9334 9381 1
9334 9946 1
9334 9949 1
9334 9950 1
9334 9995 1
9335 9336 1
9335 9338 1
9335 9881 1
9335 9949 1
9335 9950 1
9335 9953 1
9336 9337 1
9336 9338 1
9336 9339 1
9337 9338 1
9337 9339 1
9337 9340 1
9337 9341 1
9337 9382 1
9338 9339 1
9338 9381 1
9338 9382 1
9338 9950 1
9338 9953 1
9338 9954 1
9338 9999 1
9339 9340 1
9339 9341 1
9339 9885 1
9339 9953 1
9339 9954 1
9339 9957 1
9340 9341 1
9340 9342 1
9341 9342 1
9341 9954 1
9341 9957 1
9342 9343 1
9342 9889 1
9342 9957 1
9342 9960 1
9344 9345 1
9345 9346 1
9345 9348 1
9345 9914 1
9345 9961 1
9345 9963 1
9346 9347 1
9346 9348 1
9346 9349 1
9347 9348 1
9347 9349 1
9347 9350 1
9347 9352 1
9347 9383 1
9347 9384 1
9348 9349 1
9348 9383 1
9348 9963 1
9348 9964 1
9349 9350 1
9349 9352 1
9349 9918 1
9349 9963 1
9349 9964 1
9349 9967 1
9350 9351 1
9350 9352 1
9350 9353 1
9351 9352 1
9351 9353 1
9351 9354 1
9351 9356 1
9351 9384 1
9351 9387 1
9351 9388 1
9352 9353 1
9352 9383 1
9352 9384 1
9352 9387 1
9352 9964 1
9352 9967 1
9352 9968 1
9352 10001 1
9353 9354 1
9353 9356 1
9353 9922 1
9353 9967 1
9353 9968 1
9353 9971 1
9354 9355 1
9354 9356 1
9354 9357 1
9355 9356 1
9355 9357 1
9355 9358 1
9355 9360 1
9355 9388 1
9355 9391 1
9355 9392 1
9356 9357 1
9356 9387 1
9356 9388 1
9356 9391 1
9356 9968 1
9356 9971 1
9356 9972 1
9356 10005 1
9357 9358 1
9357 9360 1
9357 9926 1
9357 9971 1
9357 9972 1
9357 9975 1
9358 9359 1
9358 9360 1
9358 9361 1
9359 9360 1
9359 9361 1
9359 9362 1
9359 9364 1
9359 9392 1
9359 9395 1
9359 9396 1
9360 9361 1
9360 9391 1
9360 9392 1
9360 9395 1
9360 9972 1
9360 9975 1
9360 9976 1
9360 10009 1
9361 9362 1
9361 9364 1
9361 9930 1
9361 9975 1
9361 9976 1
9361 9979 1
9362 9363 1
9362 9364 1
9362 9365 1
9363 9364 1
9363 9365 1
9363 9396 1
9363 9399 1
9364 9365 1
9364 9395 1
9364 9396 1
9364 9399 1
9364 9976 1
9364 9979 1
9364 9980 1
9364 10013 1
9365 9934 1
9365 9979 1
9365 9980 1
9366 9367 1
9366 9368 1
9366 9369 1
9367 9368 1
9367 9369 1
9367 9370 1
9367 9372 1
9367 9400 1
9367 9403 1
9367 9404 1
9368 9369 1
9368 9400 1
9368 9403 1
9368 9983 1
9368 9984 1
9368 10017 1
9369 9370 1
9369 9372 1
9369 9938 1
9369 9983 1
9369 9984 1
9369 9987 1
9370 9371 1
9370 9372 1
9370 9373 1
9371 9372 1
9371 9373 1
9371 9374 1
9371 9376 1
9371 9404 1
9371 9407 1
9371 9408 1
9372 9373 1
9372 9403 1
9372 9404 1
9372 9407 1
9372 9984 1
9372 9987 1
9372 9988 1
9372 10021 1
9373 9374 1
9373 9376 1
9373 9942 1
9373 9987 1
9373 9988 1
9373 9991 1
9374 9375 1
9374 9376 1
9374 9377 1
9375 9376 1
9375 9377 1
9375 9378 1
9375 9380 1
9375 9408 1
9375 9411 1
9375 9412 1
9376 9377 1
9376 9407 1
9376 9408 1
9376 9411 1
9376 9988 1
9376 9991 1
9376 9992 1
9376 10025 1
9377 9378 1
9377 9380 1
9377 9946 1
9377 9991 1
9377 9992 1
9377 9995 1
9378 9379 1
9378 9380 1
9378 9381 1
9379 9380 1
9379 9381 1
9379 9382 1
9379 9412 1
9380 9381 1
9380 9411 1
9380 9412 1
9380 9992 1
9380 9995 1
9380 9996 1
9380 10029 1
9381 9382 1
9381 9950 1
9381 9995 1
9381 9996 1
9381 9999 1
9383 9384 1
9383 9386 1
9383 9964 1
9383 10001 1
9384 9385 1
9384 9386 1
9384 9387 1
9385 9386 1
9385 9387 1
9385 9388 1
9385 9390 1
9385 9413 1
9385 9414 1
9386 9387 1
9386 9413 1
9386 10001 1
9386 10002 1
9387 9388 1
9387 9390 1
9387 9968 1
9387 10001 1
9387 10002 1
9387 10005 1
9388 9389 1
9388 9390 1
9388 9391 1
9389 9390 1
9389 9391 1
9389 9392 1
9389 9394 1
9389 9414 1
9389 9417 1
9389 9418 1
9390 9391 1
9390 9413 1
9390 9414 1
9390 9417 1
9390 10002 1
9390 10005 1
9390 10006 1
9390 10031 1
9391 9392 1
9391 9394 1
9391 9972 1
9391 10005 1
9391 10006 1
9391 10009 1
9392 9393 1
9392 9394 1
9392 9395 1
9393 9394 1
9393 9395 1
9393 9396 1
9393 9398 1
9393 9418 1
9393 9421 1
9393 9422 1
9394 9395 1
9394 9417 1
9394 9418 1
9394 9421 1
9394 10006 1
9394 10009 1
9394 10010 1
9394 10035 1
9395 9396 1
9395 9398 1
9395 9976 1
9395 10009 1
9395 10010 1
9395 10013 1
9396 9397 1
9396 9398 1
9396 9399 1
9397 9398 1
9397 9399 1
9397 9422 1
9397 9425 1
9398 9399 1
9398 9421 1
9398 9422 1
9398 9425 1
9398 10010 1
9398 10013 1
9398 10014 1
9398 10039 1
9399 9980 1
9399 10013 1
9399 10014 1
9400 9401 1
9400 9402 1
9400 9403 1
9401 9402 1
9401 9403 1
9401 9404 1
9401 9406 1
9401 9426 1
9401 9429 1
9401 9430 1
9402 9403 1
9402 9426 1
9402 9429 1
9402 10017 1
9402 10018 1
9402 10043 1
9403 9404 1
9403 9406 1
9403 9984 1
9403 10017 1
9403 10018 1
9403 10021 1
9404 9405 1
9404 9406 1
9404 9407 1
9405 9406 1
9405 9407 1
9405 9408 1
9405 9410 1
9405 9430 1
9405 9433 1
9405 9434 1
9406 9407 1
9406 9429 1
9406 9430 1
9406 9433 1
9406 10018 1
9406 10021 1
9406 10022 1
9406 10047 1
9407 9408 1
9407 9410 1
9407 9988 1
9407 10021 1
9407 10022 1
9407 10025 1
9408 9409 1
9408 9410 1
9408 9411 1
9409 9410 1
9409 9411 1
9409 9412 1
9409 9434 1
9409 9436 1
9410 9411 1
9410 9433 1
9410 9434 1
9410 9436 1
9410 10022 1
9410 10025 1
9410 10026 1
9410 10051 1
9411 9412 1
9411 9992 1
9411 10025 1
9411 10026 1
9411 10029 1
9413 9414 1
9413 9416 1
9413 10002 1
9413 10031 1
9414 9415 1
9414 9416 1
9414 9417 1
9415 9416 1
9415 9417 1
9415 9418 1
9415 9420 1
9415 9438 1
9415 9439 1
9416 9417 1
9416 9438 1
9416 10031 1
9416 10032 1
9417 9418 1
9417 9420 1
9417 10006 1
9417 10031 1
9417 10032 1
9417 10035 1
9418 9419 1
9418 9420 1
9418 9421 1
9419 9420 1
9419 9421 1
9419 9422 1
9419 9424 1
9419 9439 1
9419 9442 1
9419 9443 1
9420 9421 1
9420 9438 1
9420 9439 1
9420 9442 1
9420 10032 1
9420 10035 1
9420 10036 1
9420 10056 1
9421 9422 1
9421 9424 1
9421 10010 1
9421 10035 1
9421 10036 1
9421 10039 1
9422 9423 1
9422 9424 1
9422 9425 1
9423 9424 1
9423 9425 1
9423 9443 1
9423 9446 1
9424 9425 1
9424 9442 1
9424 9443 1
9424 9446 1
9424 10036 1
9424 10039 1
9424 10040 1
9424 10060 1
9425 10014 1
9425 10039 1
9425 10040 1
9426 9427 1
9426 9428 1
9426 9429 1
9427 9428 1
9427 9429 1
9427 9430 1
9427 9432 1
9427 9447 1
9427 9450 1
9427 9451 1
9428 9429 1
9428 9447 1
9428 9450 1
9428 10043 1
9428 10044 1
9428 10064 1
9429 9430 1
9429 9432 1
9429 10018 1
9429 10043 1
9429 10044 1
9429 10047 1
9430 9431 1
9430 9432 1
9430 9433 1
9431 9432 1
9431 9433 1
9431 9434 1
9431 9435 1
9431 9451 1
9431 9454 1
9431 9455 1
9432 9433 1
9432 9450 1
9432 9451 1
9432 9454 1
9432 10044 1
9432 10047 1
9432 10048 1
9432 10068 1
9433 9434 1
9433 9435 1
9433 10022 1
9433 10047 1
9433 10048 1
9433 10051 1
9434 9435 1
9434 9436 1
9435 9436 1
9435 9454 1
9435 9455 1
9435 10048 1
9435 10051 1
9435 10072 1
9436 10026 1
9436 10051 1
9437 9438 1
9437 9439 1
9437 9441 1
9437 9456 1
9438 9439 1
9438 9441 1
9438 10032 1
9438 10054 1
9438 10056 1
9439 9440 1
9439 9441 1
9439 9442 1
9440 9441 1
9440 9442 1
9440 9443 1
9440 9445 1
9440 9456 1
9440 9459 1
9440 9460 1
9441 9442 1
9441 9456 1
9441 9459 1
9441 10054 1
9441 10056 1
9441 10057 1
9441 10073 1
9442 9443 1
9442 9445 1
9442 10036 1
9442 10056 1
9442 10057 1
9442 10060 1
9443 9444 1
9443 9445 1
9443 9446 1
9444 9445 1
9444 9446 1
9444 9460 1
9444 9463 1
9445 9446 1
9445 9459 1
9445 9460 1
9445 9463 1
9445 10057 1
9445 10060 1
9445 10061 1
9445 10077 1
9446 10040 1
9446 10060 1
9446 10061 1
9447 9448 1
9447 9449 1
9447 9450 1
9448 9449 1
9448 9450 1
9448 9451 1
9448 9453 1
9448 9464 1
9448 9467 1
9448 9468 1
9449 9450 1
9449 9464 1
9449 9467 1
9449 10064 1
9449 10065 1
9449 10081 1
9450 9451 1
9450 9453 1
9450 10044 1
9450 10064 1
9450 10065 1
9450 10068 1
9451 9452 1
9451 9453 1
9451 9454 1
9452 9453 1
9452 9454 1
9452 9455 1
9452 9468 1
9452 9471 1
9453 9454 1
9453 9467 1
9453 9468 1
9453 9471 1
9453 10065 1
9453 10068 1
9453 10069 1
9453 10085 1
9454 9455 1
9454 10048 1
9454 10068 1
9454 10069 1
9454 10072 1
9456 9457 1
9456 9458 1
9456 9459 1
9457 9458 1
9457 9459 1
9457 9460 1
9457 9462 1
9457 9472 1
9457 9474 1
9457 9475 1
9458 9459 1
9458 9472 1
9458 9474 1
9458 10073 1
9458 10074 1
9458 10089 1
9459 9460 1
9459 9462 1
9459 10057 1
9459 10073 1
9459 10074 1
9459 10077 1
9460 9461 1
9460 9462 1
9460 9463 1
9461 9462 1
9461 9463 1
9461 9475 1
9461 9478 1
9462 9463 1
9462 9474 1
9462 9475 1
9462 9478 1
9462 10074 1
9462 10077 1
9462 10078 1
9462 10092 1
9463 10061 1
9463 10077 1
9463 10078 1
9464 9465 1
9464 9466 1
9464 9467 1
9465 9466 1
9465 9467 1
9465 9468 1
9465 9470 1
9465 9479 1
9465 9482 1
9465 9483 1
9466 9467 1
9466 9479 1
9466 9482 1
9466 10081 1
9466 10082 1
9466 10096 1
9467 9468 1
9467 9470 1
9467 10065 1
9467 10081 1
9467 10082 1
9467 10085 1
9468 9469 1
9468 9470 1
9468 9471 1
9469 9470 1
9469 9471 1
9469 9483 1
9469 9485 1
9470 9471 1
9470 9482 1
9470 9483 1
9470 9485 1
9470 10082 1
9470 10085 1
9470 10086 1
9470 10100 1
9471 10069 1
9471 10085 1
9471 10086 1
9472 9473 1
9472 9474 1
9473 9474 1
9473 9475 1
9473 9477 1
9473 9487 1
9473 9488 1
9474 9475 1
9474 9477 1
9474 10074 1
9474 10089 1
9474 10090 1
9474 10092 1
9475 9476 1
9475 9477 1
9475 9478 1
9476 9477 1
9476 9478 1
9476 9488 1
9476 9491 1
9477 9478 1
9477 9487 1
9477 9488 1
9477 9491 1
9477 10090 1
9477 10092 1
9477 10093 1
9477 10105 1
9478 10078 1
9478 10092 1
9478 10093 1
9479 9480 1
9479 9481 1
9479 9482 1
9480 9481 1
9480 9482 1
9480 9483 1
9480 9484 1
9480 9492 1
9480 9495 1
9480 9496 1
9481 9482 1
9481 9492 1
9481 9495 1
9481 10096 1
9481 10097 1
9481 10109 1
9482 9483 1
9482 9484 1
9482 10082 1
9482 10096 1
9482 10097 1
9482 10100 1
9483 9484 1
9483 9485 1
9484 9485 1
9484 9495 1
9484 9496 1
9484 10097 1
9484 10100 1
9484 10113 1
9485 10086 1
9485 10100 1
9486 9487 1
9486 9488 1
9486 9490 1
9486 9499 1
9486 9500 1
9487 9488 1
9487 9490 1
9487 10090 1
9487 10103 1
9487 10105 1
9488 9489 1
9488 9490 1
9488 9491 1
9489 9490 1
9489 9491 1
9489 9500 1
9489 9503 1
9490 9491 1
9490 9499 1
9490 9500 1
9490 9503 1
9490 10103 1
9490 10105 1
9490 10106 1
9490 10117 1
9491 10093 1
9491 10105 1
9491 10106 1
9492 9493 1
9492 9494 1
9492 9495 1
9493 9494 1
9493 9495 1
9493 9496 1
9493 9497 1
9493 9504 1
9493 9507 1
9493 9508 1
9494 9495 1
9494 9504 1
9494 9507 1
9494 10109 1
9494 10110 1
9494 10121 1
9495 9496 1
9495 9497 1
9495 10097 1
9495 10109 1
9495 10110 1
9495 10113 1
9496 9497 1
9497 9507 1
9497 9508 1
9497 9511 1
9497 10110 1
9497 10113 1
9497 10125 1
9498 9499 1
9498 9500 1
9498 9502 1
9498 9514 1
9498 9515 1
9499 9500 1
9499 9502 1
9499 10103 1
9499 10115 1
9499 10117 1
9500 9501 1
9500 9502 1
9500 9503 1
9501 9502 1
9501 9503 1
9501 9515 1
9501 9518 1
9502 9503 1
9502 9514 1
9502 9515 1
9502 9518 1
9502 10115 1
9502 10117 1
9502 10118 1
9502 10132 1
9503 10106 1
9503 10117 1
9503 10118 1
9504 9505 1
9504 9506 1
9504 9507 1
9505 9506 1
9505 9507 1
9505 9508 1
9505 9510 1
9505 9519 1
9505 9522 1
9505 9523 1
9506 9507 1
9506 9519 1
9506 9522 1
9506 10121 1
9506 10122 1
9506 10136 1
9507 9508 1
9507 9510 1
9507 10110 1
9507 10121 1
9507 10122 1
9507 10125 1
9508 9509 1
9508 9510 1
9508 9511 1
9509 9510 1
9509 9511 1
9509 9523 1
9509 9526 1
9510 9511 1
9510 9522 1
9510 9523 1
9510 9526 1
9510 10122 1
9510 10125 1
9510 10126 1
9510 10140 1
9511 10125 1
9511 10126 1
9512 9513 1
9512 9514 1
9512 9515 1
9512 9517 1
9512 9527 1
9512 9530 1
9512 9531 1
9513 9514 1
9513 9527 1
9513 9530 1
9513 10129 1
9513 10144 1
9514 9515 1
9514 9517 1
9514 10115 1
9514 10129 1
9514 10132 1
9515 9516 1
9515 9517 1
9515 9518 1
9516 9517 1
9516 9518 1
9516 9531 1
9516 9534 1
9517 9518 1
9517 9530 1
9517 9531 1
9517 9534 1
9517 10129 1
9517 10132 1
9517 10133 1
9517 10148 1
9518 10118 1
9518 10132 1
9518 10133 1
9519 9520 1
9519 9521 1
9519 9522 1
9520 9521 1
9520 9522 1
9520 9523 1
9520 9525 1
9520 9535 1
9520 9538 1
9520 9539 1
9521 9522 1
9521 9535 1
9521 9538 1
9521 10136 1
9521 10137 1
9521 10152 1
9522 9523 1
9522 9525 1
9522 10122 1
9522 10136 1
9522 10137 1
9522 10140 1
9523 9524 1
9523 9525 1
9523 9526 1
9524 9525 1
9524 9526 1
9524 9539 1
9524 9542 1
9524 9543 1
9525 9526 1
9525 9538 1
9525 9539 1
9525 9542 1
9525 10137 1
9525 10140 1
9525 10141 1
9525 10156 1
9526 10126 1
9526 10140 1
9526 10141 1
9527 9528 1
9527 9529 1
9527 9530 1
9528 9529 1
9528 9530 1
9528 9531 1
9528 9533 1
9528 9547 1
9528 9550 1
9528 9551 1
9529 9530 1
9529 9546 1
9529 9547 1
9529 9550 1
9529 10144 1
9529 10145 1
9529 10164 1
9530 9531 1
9530 9533 1
9530 10129 1
9530 10144 1
9530 10145 1
9530 10148 1
9531 9532 1
9531 9533 1
9531 9534 1
9532 9533 1
9532 9534 1
9532 9551 1
9532 9554 1
9533 9534 1
9533 9550 1
9533 9551 1
9533 9554 1
9533 10145 1
9533 10148 1
9533 10149 1
9533 10168 1
9534 10133 1
9534 10148 1
9534 10149 1
9535 9536 1
9535 9537 1
9535 9538 1
9536 9537 1
9536 9538 1
9536 9539 1
9536 9541 1
9536 9555 1
9536 9558 1
9536 9559 1
9537 9538 1
9537 9555 1
9537 9558 1
9537 10152 1
9537 10153 1
9537 10172 1
9538 9539 1
9538 9541 1
9538 10137 1
9538 10152 1
9538 10153 1
9538 10156 1
9539 9540 1
9539 9541 1
9539 9542 1
9540 9541 1
9540 9542 1
9540 9543 1
9540 9544 1
9540 9559 1
9540 9562 1
9540 9563 1
9541 9542 1
9541 9558 1
9541 9559 1
9541 9562 1
9541 10153 1
9541 10156 1
9541 10157 1
9541 10176 1
9542 9543 1
9542 9544 1
9542 10141 1
9542 10156 1
9542 10157 1
9542 10160 1
9543 9544 1
9544 9562 1
9544 9563 1
9544 9566 1
9544 10157 1
9544 10160 1
9544 10180 1
9545 9546 1
9545 9547 1
9545 9549 1
9545 9569 1
9545 9572 1
9545 9573 1
9546 9547 1
9546 9549 1
9546 10162 1
9546 10164 1
9547 9548 1
9547 9549 1
9547 9550 1
9548 9549 1
9548 9550 1
9548 9551 1
9548 9553 1
9548 9573 1
9548 9576 1
9548 9577 1
9549 9550 1
9549 9572 1
9549 9573 1
9549 9576 1
9549 10162 1
9549 10164 1
9549 10165 1
9549 10190 1
9550 9551 1
9550 9553 1
9550 10145 1
9550 10164 1
9550 10165 1
9550 10168 1
9551 9552 1
9551 9553 1
9551 9554 1
9552 9553 1
9552 9554 1
9552 9577 1
9552 9580 1
9553 9554 1
9553 9576 1
9553 9577 1
9553 9580 1
9553 10165 1
9553 10168 1
9553 10169 1
9553 10194 1
9554 10149 1
9554 10168 1
9554 10169 1
9555 9556 1
9555 9557 1
9555 9558 1
9556 9557 1
9556 9558 1
9556 9559 1
9556 9561 1
9556 9581 1
9556 9584 1
9556 9585 1
9557 9558 1
9557 9581 1
9557 9584 1
9557 10172 1
9557 10173 1
9557 10198 1
9558 9559 1
9558 9561 1
9558 10153 1
9558 10172 1
9558 10173 1
9558 10176 1
9559 9560 1
9559 9561 1
9559 9562 1
9560 9561 1
9560 9562 1
9560 9563 1
9560 9565 1
9560 9585 1
9560 9588 1
9560 9589 1
9561 9562 1
9561 9584 1
9561 9585 1
9561 9588 1
9561 10173 1
9561 10176 1
9561 10177 1
9561 10202 1
9562 9563 1
9562 9565 1
9562 10157 1
9562 10176 1
9562 10177 1
9562 10180 1
9563 9564 1
9563 9565 1
9563 9566 1
9564 9565 1
9564 9566 1
9564 9567 1
9564 9589 1
9564 9592 1
9564 9593 1
9565 9566 1
9565 9588 1
9565 9589 1
9565 9592 1
9565 10177 1
9565 10180 1
9565 10181 1
9565 10206 1
9566 9567 1
9566 10180 1
9566 10181 1
9567 9592 1
9567 9593 1
9567 9596 1
9567 10181 1
9567 10210 1
9568 9569 1
9568 9571 1
9568 9601 1
9568 9602 1
9569 9570 1
9569 9571 1
9569 9572 1
9570 9571 1
9570 9572 1
9570 9573 1
9570 9575 1
9570 9602 1
9570 9605 1
9570 9606 1
9571 9572 1
9571 9601 1
9571 9602 1
9571 9605 1
9571 10185 1
9571 10186 1
9571 10187 1
9571 10219 1
9572 9573 1
9572 9575 1
9572 10162 1
9572 10186 1
9572 10187 1
9572 10190 1
9573 9574 1
9573 9575 1
9573 9576 1
9574 9575 1
9574 9576 1
9574 9577 1
9574 9579 1
9574 9606 1
9574 9609 1
9574 9610 1
9575 9576 1
9575 9605 1
9575 9606 1
9575 9609 1
9575 10187 1
9575 10190 1
9575 10191 1
9575 10223 1
9576 9577 1
9576 9579 1
9576 10165 1
9576 10190 1
9576 10191 1
9576 10194 1
9577 9578 1
9577 9579 1
9577 9580 1
9578 9579 1
9578 9580 1
9578 9610 1
9578 9613 1
9579 9580 1
9579 9609 1
9579 9610 1
9579 9613 1
9579 10191 1
9579 10194 1
9579 10195 1
9579 10227 1
9580 10169 1
9580 10194 1
9580 10195 1
9581 9582 1
9581 9583 1
9581 9584 1
9582 9583 1
9582 9584 1
9582 9585 1
9582 9587 1
9582 9614 1
9582 9617 1
9582 9618 1
9583 9584 1
9583 9614 1
9583 9617 1
9583 10198 1
9583 10199 1
9583 10231 1
9584 9585 1
9584 9587 1
9584 10173 1
9584 10198 1
9584 10199 1
9584 10202 1
9585 9586 1
9585 9587 1
9585 9588 1
9586 9587 1
9586 9588 1
9586 9589 1
9586 9591 1
9586 9618 1
9586 9621 1
9586 9622 1
9587 9588 1
9587 9617 1
9587 9618 1
9587 9621 1
9587 10199 1
9587 10202 1
9587 10203 1
9587 10235 1
9588 9589 1
9588 9591 1
9588 10177 1
9588 10202 1
9588 10203 1
9588 10206 1
9589 9590 1
9589 9591 1
9589 9592 1
9590 9591 1
9590 9592 1
9590 9593 1
9590 9595 1
9590 9622 1
9590 9625 1
9590 9626 1
9591 9592 1
9591 9621 1
9591 9622 1
9591 9625 1
9591 10203 1
9591 10206 1
9591 10207 1
9591 10239 1
9592 9593 1
9592 9595 1
9592 10181 1
9592 10206 1
9592 10207 1
9592 10210 1
9593 9594 1
9593 9595 1
9593 9596 1
9594 9595 1
9594 9596 1
9594 9597 1
9594 9626 1
9594 9629 1
9594 9630 1
9595 9596 1
9595 9625 1
9595 9626 1
9595 9629 1
9595 10207 1
9595 10210 1
9595 10211 1
9595 10243 1
9596 9597 1
9596 10210 1
9596 10211 1
9597 9629 1
9597 9630 1
9597 9633 1
9597 10211 1
9597 10247 1
9598 9600 1
9598 9638 1
9598 9641 1
9598 9642 1
9599 9600 1
9599 9601 1
9599 9602 1
9599 9604 1
9599 9642 1
9599 9645 1
9599 9646 1
9600 9601 1
9600 9641 1
9600 9642 1
9600 9645 1
9600 10215 1
9600 10216 1
9600 10259 1
9601 9602 1
9601 9604 1
9601 10185 1
9601 10216 1
9601 10219 1
9602 9603 1
9602 9604 1
9602 9605 1
9603 9604 1
9603 9605 1
9603 9606 1
9603 9608 1
9603 9646 1
9603 9649 1
9603 9650 1
9604 9605 1
9604 9645 1
9604 9646 1
9604 9649 1
9604 10216 1
9604 10219 1
9604 10220 1
9604 10263 1
9605 9606 1
9605 9608 1
9605 10187 1
9605 10219 1
9605 10220 1
9605 10223 1
9606 9607 1
9606 9608 1
9606 9609 1
9607 9608 1
9607 9609 1
9607 9610 1
9607 9612 1
9607 9650 1
9607 9653 1
9607 9654 1
9608 9609 1
9608 9649 1
9608 9650 1
9608 9653 1
9608 10220 1
9608 10223 1
9608 10224 1
9608 10267 1
9609 9610 1
9609 9612 1
9609 10191 1
9609 10223 1
9609 10224 1
9609 10227 1
9610 9611 1
9610 9612 1
9610 9613 1
9611 9612 1
9611 9613 1
9611 9654 1
9611 9657 1
9612 9613 1
9612 9653 1
9612 9654 1
9612 9657 1
9612 10224 1
9612 10227 1
9612 10228 1
9612 10271 1
9613 10195 1
9613 10227 1
9613 10228 1
9614 9615 1
9614 9616 1
9614 9617 1
9615 9616 1
9615 9617 1
9615 9618 1
9615 9620 1
9615 9658 1
9615 9661 1
9615 9662 1
9616 9617 1
9616 9658 1
9616 9661 1
9616 10231 1
9616 10232 1
9616 10275 1
9617 9618 1
9617 9620 1
9617 10199 1
9617 10231 1
9617 10232 1
9617 10235 1
9618 9619 1
9618 9620 1
9618 9621 1
9619 9620 1
9619 9621 1
9619 9622 1
9619 9624 1
9619 9662 1
9619 9665 1
9619 9666 1
9620 9621 1
9620 9661 1
9620 9662 1
9620 9665 1
9620 10232 1
9620 10235 1
9620 10236 1
9620 10279 1
9621 9622 1
9621 9624 1
9621 10203 1
9621 10235 1
9621 10236 1
9621 10239 1
9622 9623 1
9622 9624 1
9622 9625 1
9623 9624 1
9623 9625 1
9623 9626 1
9623 9628 1
9623 9666 1
9623 9669 1
9623 9670 1
9624 9625 1
9624 9665 1
9624 9666 1
9624 9669 1
9624 10236 1
9624 10239 1
9624 10240 1
9624 10283 1
9625 9626 1
9625 9628 1
9625 10207 1
9625 10239 1
9625 10240 1
9625 10243 1
9626 9627 1
9626 9628 1
9626 9629 1
9627 9628 1
9627 9629 1
9627 9630 1
9627 9632 1
9627 9670 1
9627 9673 1
9627 9674 1
9628 9629 1
9628 9669 1
9628 9670 1
9628 9673 1
9628 10240 1
9628 10243 1
9628 10244 1
9628 10287 1
9629 9630 1
9629 9632 1
9629 10211 1
9629 10243 1
9629 10244 1
9629 10247 1
9630 9631 1
9630 9632 1
9630 9633 1
9631 9632 1
9631 9633 1
9631 9635 1
9631 9674 1
9631 9677 1
9631 9678 1
9632 9633 1
9632 9673 1
9632 9674 1
9632 9677 1
9632 10244 1
9632 10247 1
9632 10248 1
9632 10291 1
9633 9635 1
9633 10247 1
9633 10248 1
9634 9635 1
9634 9678 1
9634 9681 1
9634 9682 1
9635 9677 1
9635 9678 1
9635 9681 1
9635 10248 1
9635 10251 1
9635 10295 1
9636 9637 1
9636 9638 1
9636 9640 1
9636 9700 1
9636 9703 1
9636 9704 1
9637 9699 1
9637 9700 1
9637 9703 1
9637 10253 1
9637 10317 1
9638 9639 1
9638 9640 1
9638 9641 1
9639 9640 1
9639 9641 1
9639 9642 1
9639 9644 1
9639 9704 1
9639 9707 1
9639 9708 1
9640 9641 1
9640 9703 1
9640 9704 1
9640 9707 1
9640 10253 1
9640 10255 1
9640 10256 1
9640 10321 1
9641 9642 1
9641 9644 1
9641 10215 1
9641 10255 1
9641 10256 1
9641 10259 1
9642 9643 1
9642 9644 1
9642 9645 1
9643 9644 1
9643 9645 1
9643 9646 1
9643 9648 1
9643 9708 1
9643 9711 1
9643 9712 1
9644 9645 1
9644 9707 1
9644 9708 1
9644 9711 1
9644 10256 1
9644 10259 1
9644 10260 1
9644 10325 1
9645 9646 1
9645 9648 1
9645 10216 1
9645 10259 1
9645 10260 1
9645 10263 1
9646 9647 1
9646 9648 1
9646 9649 1
9647 9648 1
9647 9649 1
9647 9650 1
9647 9652 1
9647 9712 1
9647 9715 1
9647 9716 1
9648 9649 1
9648 9711 1
9648 9712 1
9648 9715 1
9648 10260 1
9648 10263 1
9648 10264 1
9648 10329 1
9649 9650 1
9649 9652 1
9649 10220 1
9649 10263 1
9649 10264 1
9649 10267 1
9650 9651 1
9650 9652 1
9650 9653 1
9651 9652 1
9651 9653 1
9651 9654 1
9651 9656 1
9651 9716 1
9651 9719 1
9651 9720 1
9652 9653 1
9652 9715 1
9652 9716 1
9652 9719 1
9652 10264 1
9652 10267 1
9652 10268 1
9652 10333 1
9653 9654 1
9653 9656 1
9653 10224 1
9653 10267 1
9653 10268 1
9653 10271 1
9654 9655 1
9654 9656 1
9654 9657 1
9655 9656 1
9655 9657 1
9655 9720 1
9655 9723 1
9656 9657 1
9656 9719 1
9656 9720 1
9656 9723 1
9656 10268 1
9656 10271 1
9656 10272 1
9656 10337 1
9657 10228 1
9657 10271 1
9657 10272 1
9658 9659 1
9658 9660 1
9658 9661 1
9659 9660 1
9659 9661 1
9659 9662 1
9659 9664 1
9659 9724 1
9659 9727 1
9659 9728 1
9660 9661 1
9660 9724 1
9660 9727 1
9660 10275 1
9660 10276 1
9660 10341 1
9661 9662 1
9661 9664 1
9661 10232 1
9661 10275 1
9661 10276 1
9661 10279 1
9662 9663 1
9662 9664 1
9662 9665 1
9663 9664 1
9663 9665 1
9663 9666 1
9663 9668 1
9663 9728 1
9663 9731 1
9663 9732 1
9664 9665 1
9664 9727 1
9664 9728 1
9664 9731 1
9664 10276 1
9664 10279 1
9664 10280 1
9664 10345 1
9665 9666 1
9665 9668 1
9665 10236 1
9665 10279 1
9665 10280 1
9665 10283 1
9666 9667 1
9666 9668 1
9666 9669 1
9667 9668 1
9667 9669 1
9667 9670 1
9667 9672 1
9667 9732 1
9667 9735 1
9667 9736 1
9668 9669 1
9668 9731 1
9668 9732 1
9668 9735 1
9668 10280 1
9668 10283 1
9668 10284 1
9668 10349 1
9669 9670 1
9669 9672 1
9669 10240 1
9669 10283 1
9669 10284 1
9669 10287 1
9670 9671 1
9670 9672 1
9670 9673 1
9671 9672 1
9671 9673 1
9671 9674 1
9671 9676 1
9671 9736 1
9671 9739 1
9671 9740 1
9672 9673 1
9672 9735 1
9672 9736 1
9672 9739 1
9672 10284 1
9672 10287 1
9672 10288 1
9672 10353 1
9673 9674 1
9673 9676 1
9673 10244 1
9673 10287 1
9673 10288 1
9673 10291 1
9674 9675 1
9674 9676 1
9674 9677 1
9675 9676 1
9675 9677 1
9675 9678 1
9675 9680 1
9675 9740 1
9675 9743 1
9675 9744 1
9676 9677 1
9676 9739 1
9676 9740 1
9676 9743 1
9676 10288 1
9676 10291 1
9676 10292 1
9676 10357 1
9677 9678 1
9677 9680 1
9677 10248 1
9677 10291 1
9677 10292 1
9677 10295 1
9678 9679 1
9678 9680 1
9678 9681 1
9679 9680 1
9679 9681 1
9679 9682 1
9679 9684 1
9679 9744 1
9679 9747 1
9679 9748 1
9680 9681 1
9680 9743 1
9680 9744 1
9680 9747 1
9680 10292 1
9680 10295 1
9680 10296 1
9680 10361 1
9681 9682 1
9681 9684 1
9681 10251 1
9681 10295 1
9681 10296 1
9681 10299 1
9682 9683 1
9682 9684 1
9682 9685 1
9683 9684 1
9683 9685 1
9683 9686 1
9683 9688 1
9683 9748 1
9683 9751 1
9683 9752 1
9684 9685 1
9684 9747 1
9684 9748 1
9684 9751 1
9684 10296 1
9684 10299 1
9684 10300 1
9684 10365 1
9685 9686 1
9685 9688 1
9685 10299 1
9685 10300 1
9685 10303 1
9686 9687 1
9686 9688 1
9687 9688 1
9687 9690 1
9687 9752 1
9687 9755 1
9687 9756 1
9688 9751 1
9688 9752 1
9688 9755 1
9688 10300 1
9688 10303 1
9688 10304 1
9688 10369 1
9689 9690 1
9689 9692 1
9689 9756 1
9689 9759 1
9689 9760 1
9690 9755 1
9690 9756 1
9690 9759 1
9690 10304 1
9690 10306 1
9690 10373 1
9691 9692 1
9691 9694 1
9691 9760 1
9691 9763 1
9691 9764 1
9692 9759 1
9692 9760 1
9692 9763 1
9692 10306 1
9692 10308 1
9692 10377 1
9693 9694 1
9693 9695 1
9693 9696 1
9693 9698 1
9693 9764 1
9693 9767 1
9693 9768 1
9694 9695 1
9694 9763 1
9694 9764 1
9694 9767 1
9694 10308 1
9694 10310 1
9694 10381 1
9695 9696 1
9695 9698 1
9695 10310 1
9695 10313 1
9696 9697 1
9696 9698 1
9696 9699 1
9697 9698 1
9697 9699 1
9697 9700 1
9697 9702 1
9697 9768 1
9697 9771 1
9697 9772 1
9698 9699 1
9698 9767 1
9698 9768 1
9698 9771 1
9698 10310 1
9698 10313 1
9698 10314 1
9698 10385 1
9699 9700 1
9699 9702 1
9699 10313 1
9699 10314 1
9699 10317 1
9700 9701 1
9700 9702 1
9700 9703 1
9701 9702 1
9701 9703 1
9701 9704 1
9701 9706 1
9701 9772 1
9701 9775 1
9701 9776 1
9702 9703 1
9702 9771 1
9702 9772 1
9702 9775 1
9702 10314 1
9702 10317 1
9702 10318 1
9702 10389 1
9703 9704 1
9703 9706 1
9703 10253 1
9703 10317 1
9703 10318 1
9703 10321 1
9704 9705 1
9704 9706 1
9704 9707 1
9705 9706 1
9705 9707 1
9705 9708 1
9705 9710 1
9705 9776 1
9705 9779 1
9705 9780 1
9706 9707 1
9706 9775 1
9706 9776 1
9706 9779 1
9706 10318 1
9706 10321 1
9706 10322 1
9706 10393 1
9707 9708 1
9707 9710 1
9707 10256 1
9707 10321 1
9707 10322 1
9707 10325 1
9708 9709 1
9708 9710 1
9708 9711 1
9709 9710 1
9709 9711 1
9709 9712 1
9709 9714 1
9709 9780 1
9709 9783 1
9709 9784 1
9710 9711 1
9710 9779 1
9710 9780 1
9710 9783 1
9710 10322 1
9710 10325 1
9710 10326 1
9710 10397 1
9711 9712 1
9711 9714 1
9711 10260 1
9711 10325 1
9711 10326 1
9711 10329 1
9712 9713 1
9712 9714 1
9712 9715 1
9713 9714 1
9713 9715 1
9713 9716 1
9713 9718 1
9713 9784 1
9713 9787 1
9713 9788 1
9714 9715 1
9714 9783 1
9714 9784 1
9714 9787 1
9714 10326 1
9714 10329 1
9714 10330 1
9714 10401 1
9715 9716 1
9715 9718 1
9715 10264 1
9715 10329 1
9715 10330 1
9715 10333 1
9716 9717 1
9716 9718 1
9716 9719 1
9717 9718 1
9717 9719 1
9717 9720 1
9717 9722 1
9717 9788 1
9717 9791 1
9717 9792 1
9718 9719 1
9718 9787 1
9718 9788 1
9718 9791 1
9718 10330 1
9718 10333 1
9718 10334 1
9718 10405 1
9719 9720 1
9719 9722 1
9719 10268 1
9719 10333 1
9719 10334 1
9719 10337 1
9720 9721 1
9720 9722 1
9720 9723 1
9721 9722 1
9721 9723 1
9721 9792 1
9721 9795 1
9722 9723 1
9722 9791 1
9722 9792 1
9722 9795 1
9722 10334 1
9722 10337 1
9722 10338 1
9722 10409 1
9723 10272 1
9723 10337 1
9723 10338 1
9724 9725 1
9724 9726 1
9724 9727 1
9725 9726 1
9725 9727 1
9725 9728 1
9725 9730 1
9726 9727 1
9726 10341 1
9726 10342 1
9727 9728 1
9727 9730 1
9727 10276 1
9727 10341 1
9727 10342 1
9727 10345 1
9728 9729 1
9728 9730 1
9728 9731 1
9729 9730 1
9729 9731 1
9729 9732 1
9729 9734 1
9730 9731 1
9730 10342 1
9730 10345 1
9730 10346 1
9731 9732 1
9731 9734 1
9731 10280 1
9731 10345 1
9731 10346 1
9731 10349 1
9732 9733 1
9732 9734 1
9732 9735 1
9733 9734 1
9733 9735 1
9733 9736 1
9733 9738 1
9734 9735 1
9734 10346 1
9734 10349 1
9734 10350 1
9735 9736 1
9735 9738 1
9735 10284 1
9735 10349 1
9735 10350 1
9735 10353 1
9736 9737 1
9736 9738 1
9736 9739 1
9737 9738 1
9737 9739 1
9737 9740 1
9737 9742 1
9738 9739 1
9738 10350 1
9738 10353 1
9738 10354 1
9739 9740 1
9739 9742 1
9739 10288 1
9739 10353 1
9739 10354 1
9739 10357 1
9740 9741 1
9740 9742 1
9740 9743 1
9741 9742 1
9741 9743 1
9741 9744 1
9741 9746 1
9742 9743 1
9742 10354 1
9742 10357 1
9742 10358 1
9743 9744 1
9743 9746 1
9743 10292 1
9743 10357 1
9743 10358 1
9743 10361 1
9744 9745 1
9744 9746 1
9744 9747 1
9745 9746 1
9745 9747 1
9745 9748 1
9745 9750 1
9746 9747 1
9746 10358 1
9746 10361 1
9746 10362 1
9747 9748 1
9747 9750 1
9747 10296 1
9747 10361 1
9747 10362 1
9747 10365 1
9748 9749 1
9748 9750 1
9748 9751 1
9749 9750 1
9749 9751 1
9749 9752 1
9749 9754 1
9750 9751 1
9750 10362 1
9750 10365 1
9750 10366 1
9751 9752 1
9751 9754 1
9751 10300 1
9751 10365 1
9751 10366 1
9751 10369 1
9752 9753 1
9752 9754 1
9752 9755 1
9753 9754 1
9753 9755 1
9753 9756 1
9753 9758 1
9754 9755 1
9754 10366 1
9754 10369 1
9754 10370 1
9755 9756 1
9755 9758 1
9755 10304 1
9755 10369 1
9755 10370 1
9755 10373 1
9756 9757 1
9756 9758 1
9756 9759 1
9757 9758 1
9757 9759 1
9757 9760 1
9757 9762 1
9758 9759 1
9758 10370 1
9758 10373 1
9758 10374 1
9759 9760 1
9759 9762 1
9759 10306 1
9759 10373 1
9759 10374 1
9759 10377 1
9760 9761 1
9760 9762 1
9760 9763 1
9761 9762 1
9761 9763 1
9761 9764 1
9761 9766 1
9762 9763 1
9762 10374 1
9762 10377 1
9762 10378 1
9763 9764 1
9763 9766 1
9763 10308 1
9763 10377 1
9763 10378 1
9763 10381 1
9764 9765 1
9764 9766 1
9764 9767 1
9765 9766 1
9765 9767 1
9765 9768 1
9765 9770 1
9766 9767 1
9766 10378 1
9766 10381 1
9766 10382 1
9767 9768 1
9767 9770 1
9767 10310 1
9767 10381 1
9767 10382 1
9767 10385 1
9768 9769 1
9768 9770 1
9768 9771 1
9769 9770 1
9769 9771 1
9769 9772 1
9769 9774 1
9770 9771 1
9770 10382 1
9770 10385 1
9770 10386 1
9771 9772 1
9771 9774 1
9771 10314 1
9771 10385 1
9771 10386 1
9771 10389 1
9772 9773 1
9772 9774 1
9772 9775 1
9773 9774 1
9773 9775 1
9773 9776 1
9773 9778 1
9774 9775 1
9774 10386 1
9774 10389 1
9774 10390 1
9775 9776 1
9775 9778 1
9775 10318 1
9775 10389 1
9775 10390 1
9775 10393 1
9776 9777 1
9776 9778 1
9776 9779 1
9777 9778 1
9777 9779 1
9777 9780 1
9777 9782 1
9778 9779 1
9778 10390 1
9778 10393 1
9778 10394 1
9779 9780 1
9779 9782 1
9779 10322 1
9779 10393 1
9779 10394 1
9779 10397 1
9780 9781 1
9780 9782 1
9780 9783 1
9781 9782 1
9781 9783 1
9781 9784 1
9781 9786 1
9782 9783 1
9782 10394 1
9782 10397 1
9782 10398 1
9783 9784 1
9783 9786 1
9783 10326 1
9783 10397 1
9783 10398 1
9783 10401 1
9784 9785 1
9784 9786 1
9784 9787 1
9785 9786 1
9785 9787 1
9785 9788 1
9785 9790 1
9786 9787 1
9786 10398 1
9786 10401 1
9786 10402 1
9787 9788 1
9787 9790 1
9787 10330 1
9787 10401 1
9787 10402 1
9787 10405 1
9788 9789 1
9788 9790 1
9788 9791 1
9789 9790 1
9789 9791 1
9789 9792 1
9789 9794 1
9790 9791 1
9790 10402 1
9790 10405 1
9790 10406 1
9791 9792 1
9791 9794 1
9791 10334 1
9791 10405 1
9791 10406 1
9791 10409 1
9792 9793 1
9792 9794 1
9792 9795 1
9793 9794 1
9793 9795 1
9794 9795 1
9794 10406 1
9794 10409 1
9794 10410 1
9795 10338 1
9795 10409 1
9795 10410 1
9796 9797 1
9796 9798 1
9796 9799 1
9797 9798 1
9797 9799 1
9797 9800 1
9797 9802 1
9797 9868 1
9797 9871 1
9797 9872 1
9798 9799 1
9798 9868 1
9798 9871 1
9798 10413 1
9798 10414 1
9798 10485 1
9799 9800 1
9799 9802 1
9799 10413 1
9799 10414 1
9799 10417 1
9800 9801 1
9800 9802 1
9800 9803 1
9801 9802 1
9801 9803 1
9801 9804 1
9801 9806 1
9801 9872 1
9801 9875 1
9801 9876 1
9802 9803 1
9802 9871 1
9802 9872 1
9802 9875 1
9802 10414 1
9802 10417 1
9802 10418 1
9802 10489 1
9803 9804 1
9803 9806 1
9803 10417 1
9803 10418 1
9803 10421 1
9804 9805 1
9804 9806 1
9804 9807 1
9805 9806 1
9805 9807 1
9805 9808 1
9805 9810 1
9805 9876 1
9805 9879 1
9805 9880 1
9806 9807 1
9806 9875 1
9806 9876 1
9806 9879 1
9806 10418 1
9806 10421 1
9806 10422 1
9806 10493 1
9807 9808 1
9807 9810 1
9807 10421 1
9807 10422 1
9807 10425 1
9808 9809 1
9808 9810 1
9808 9811 1
9809 9810 1
9809 9811 1
9809 9812 1
9809 9814 1
9809 9880 1
9809 9883 1
9809 9884 1
9810 9811 1
9810 9879 1
9810 9880 1
9810 9883 1
9810 10422 1
9810 10425 1
9810 10426 1
9810 10497 1
9811 9812 1
9811 9814 1
9811 10425 1
9811 10426 1
9811 10429 1
9812 9813 1
9812 9814 1
9812 9815 1
9813 9814 1
9813 9815 1
9813 9816 1
9813 9818 1
9813 9884 1
9813 9887 1
9813 9888 1
9814 9815 1
9814 9883 1
9814 9884 1
9814 9887 1
9814 10426 1
9814 10429 1
9814 10430 1
9814 10501 1
9815 9816 1
9815 9818 1
9815 10429 1
9815 10430 1
9815 10433 1
9816 9817 1
9816 9818 1
9816 9819 1
9817 9818 1
9817 9819 1
9817 9820 1
9817 9822 1
9817 9888 1
9817 9891 1
9817 9892 1
9818 9819 1
9818 9887 1
9818 9888 1
9818 9891 1
9818 10430 1
9818 10433 1
9818 10434 1
9818 10505 1
9819 9820 1
9819 9822 1
9819 10433 1
9819 10434 1
9819 10437 1
9820 9821 1
9820 9822 1
9820 9823 1
9821 9822 1
9821 9823 1
9821 9824 1
9821 9826 1
9821 9892 1
9821 9895 1
9821 9896 1
9822 9823 1
9822 9891 1
9822 9892 1
9822 9895 1
9822 10434 1
9822 10437 1
9822 10438 1
9822 10509 1
9823 9824 1
9823 9826 1
9823 10437 1
9823 10438 1
9823 10441 1
9824 9825 1
9824 9826 1
9824 9827 1
9825 9826 1
9825 9827 1
9825 9828 1
9825 9830 1
9825 9896 1
9825 9899 1
9825 9900 1
9826 9827 1
9826 9895 1
9826 9896 1
9826 9899 1
9826 10438 1
9826 10441 1
9826 10442 1
9826 10513 1
9827 9828 1
9827 9830 1
9827 10441 1
9827 10442 1
9827 10445 1
9828 9829 1
9828 9830 1
9828 9831 1
9829 9830 1
9829 9831 1
9829 9832 1
9829 9834 1
9829 9900 1
9829 9902 1
9829 9903 1
9830 9831 1
9830 9899 1
9830 9900 1
9830 9902 1
9830 10442 1
9830 10445 1
9830 10446 1
9830 10517 1
9831 9832 1
9831 9834 1
9831 10445 1
9831 10446 1
9831 10449 1
9832 9833 1
9832 9834 1
9832 9835 1
9833 9834 1
9833 9835 1
9833 9836 1
9833 9838 1
9833 9903 1
9833 9904 1
9833 9905 1
9834 9835 1
9834 9902 1
9834 9903 1
9834 9904 1
9834 10446 1
9834 10449 1
9834 10450 1
9834 10520 1
9835 9836 1
9835 9838 1
9835 10449 1
9835 10450 1
9835 10453 1
9836 9837 1
9836 9838 1
9836 9839 1
9837 9838 1
9837 9839 1
9837 9840 1
9837 9842 1
9837 9905 1
9837 9908 1
9837 9909 1
9838 9839 1
9838 9904 1
9838 9905 1
9838 9908 1
9838 10450 1
9838 10453 1
9838 10454 1
9838 10522 1
9839 9840 1
9839 9842 1
9839 10453 1
9839 10454 1
9839 10457 1
9840 9841 1
9840 9842 1
9840 9843 1
9841 9842 1
9841 9843 1
9841 9844 1
9841 9846 1
9841 9909 1
9841 9912 1
9841 9913 1
9842 9843 1
9842 9908 1
9842 9909 1
9842 9912 1
9842 10454 1
9842 10457 1
9842 10458 1
9842 10526 1
9843 9844 1
9843 9846 1
9843 10457 1
9843 10458 1
9843 10461 1
9844 9845 1
9844 9846 1
9844 9847 1
9845 9846 1
9845 9847 1
9845 9848 1
9845 9850 1
9845 9913 1
9845 9916 1
9845 9917 1
9846 9847 1
9846 9912 1
9846 9913 1
9846 9916 1
9846 10458 1
9846 10461 1
9846 10462 1
9846 10530 1
9847 9848 1
9847 9850 1
9847 10461 1
9847 10462 1
9847 10465 1
9848 9849 1
9848 9850 1
9848 9851 1
9849 9850 1
9849 9851 1
9849 9852 1
9849 9854 1
9849 9917 1
9849 9920 1
9849 9921 1
9850 9851 1
9850 9916 1
9850 9917 1
9850 9920 1
9850 10462 1
9850 10465 1
9850 10466 1
9850 10534 1
9851 9852 1
9851 9854 1
9851 10465 1
9851 10466 1
9851 10469 1
9852 9853 1
9852 9854 1
9852 9855 1
9853 9854 1
9853 9855 1
9853 9856 1
9853 9858 1
9853 9921 1
9853 9924 1
9853 9925 1
9854 9855 1
9854 9920 1
9854 9921 1
9854 9924 1
9854 10466 1
9854 10469 1
9854 10470 1
9854 10538 1
9855 9856 1
9855 9858 1
9855 10469 1
9855 10470 1
9855 10473 1
9856 9857 1
9856 9858 1
9856 9859 1
9857 9858 1
9857 9859 1
9857 9860 1
9857 9862 1
9857 9925 1
9857 9928 1
9857 9929 1
9858 9859 1
9858 9924 1
9858 9925 1
9858 9928 1
9858 10470 1
9858 10473 1
9858 10474 1
9858 10542 1
9859 9860 1
9859 9862 1
9859 10473 1
9859 10474 1
9859 10477 1
9860 9861 1
9860 9862 1
9860 9863 1
9861 9862 1
9861 9863 1
9861 9864 1
9861 9866 1
9861 9929 1
9861 9932 1
9861 9933 1
9862 9863 1
9862 9928 1
9862 9929 1
9862 9932 1
9862 10474 1
9862 10477 1
9862 10478 1
9862 10546 1
9863 9864 1
9863 9866 1
9863 10477 1
9863 10478 1
9863 10481 1
9864 9865 1
9864 9866 1
9864 9867 1
9865 9866 1
9865 9867 1
9865 9933 1
9865 9936 1
9866 9867 1
9866 9932 1
9866 9933 1
9866 9936 1
9866 10478 1
9866 10481 1
9866 10482 1
9866 10550 1
9867 10481 1
9867 10482 1
9868 9869 1
9868 9870 1
9868 9871 1
9869 9870 1
9869 9871 1
9869 9872 1
9869 9874 1
9869 9937 1
9869 9940 1
9869 9941 1
9870 9871 1
9870 9937 1
9870 9940 1
9870 10485 1
9870 10486 1
9870 10554 1
9871 9872 1
9871 9874 1
9871 10414 1
9871 10485 1
9871 10486 1
9871 10489 1
9872 9873 1
9872 9874 1
9872 9875 1
9873 9874 1
9873 9875 1
9873 9876 1
9873 9878 1
9873 9941 1
9873 9944 1
9873 9945 1
9874 9875 1
9874 9940 1
9874 9941 1
9874 9944 1
9874 10486 1
9874 10489 1
9874 10490 1
9874 10558 1
9875 9876 1
9875 9878 1
9875 10418 1
9875 10489 1
9875 10490 1
9875 10493 1
9876 9877 1
9876 9878 1
9876 9879 1
9877 9878 1
9877 9879 1
9877 9880 1
9877 9882 1
9877 9945 1
9877 9948 1
9877 9949 1
9878 9879 1
9878 9944 1
9878 9945 1
9878 9948 1
9878 10490 1
9878 10493 1
9878 10494 1
9878 10562 1
9879 9880 1
9879 9882 1
9879 10422 1
9879 10493 1
9879 10494 1
9879 10497 1
9880 9881 1
9880 9882 1
9880 9883 1
9881 9882 1
9881 9883 1
9881 9884 1
9881 9886 1
9881 9949 1
9881 9952 1
9881 9953 1
9882 9883 1
9882 9948 1
9882 9949 1
9882 9952 1
9882 10494 1
9882 10497 1
9882 10498 1
9882 10566 1
9883 9884 1
9883 9886 1
9883 10426 1
9883 10497 1
9883 10498 1
9883 10501 1
9884 9885 1
9884 9886 1
9884 9887 1
9885 9886 1
9885 9887 1
9885 9888 1
9885 9890 1
9885 9953 1
9885 9956 1
9885 9957 1
9886 9887 1
9886 9952 1
9886 9953 1
9886 9956 1
9886 10498 1
9886 10501 1
9886 10502 1
9886 10570 1
9887 9888 1
9887 9890 1
9887 10430 1
9887 10501 1
9887 10502 1
9887 10505 1
9888 9889 1
9888 9890 1
9888 9891 1
9889 9890 1
9889 9891 1
9889 9892 1
9889 9894 1
9889 9957 1
9889 9959 1
9889 9960 1
9890 9891 1
9890 9956 1
9890 9957 1
9890 9959 1
9890 10502 1
9890 10505 1
9890 10506 1
9890 10574 1
9891 9892 1
9891 9894 1
9891 10434 1
9891 10505 1
9891 10506 1
9891 10509 1
9892 9893 1
9892 9894 1
9892 9895 1
9893 9894 1
9893 9895 1
9893 9896 1
9893 9898 1
9893 9960 1
9894 9895 1
9894 9959 1
9894 9960 1
9894 10506 1
9894 10509 1
9894 10510 1
9894 10577 1
9895 9896 1
9895 9898 1
9895 10438 1
9895 10509 1
9895 10510 1
9895 10513 1
9896 9897 1
9896 9898 1
9896 9899 1
9897 9898 1
9897 9899 1
9897 9900 1
9897 9901 1
9898 9899 1
9898 10510 1
9898 10513 1
9898 10514 1
9899 9900 1
9899 9901 1
9899 10442 1
9899 10513 1
9899 10514 1
9899 10517 1
9900 9901 1
9900 9902 1
9901 9902 1
9901 10514 1
9901 10517 1
9902 9903 1
9902 10446 1
9902 10517 1
9902 10520 1
9903 9904 1
9904 9905 1
9904 9907 1
9904 10450 1
9904 10520 1
9904 10522 1
9905 9906 1
9905 9907 1
9905 9908 1
9906 9907 1
9906 9908 1
9906 9909 1
9906 9911 1
9907 9908 1
9907 10522 1
9907 10523 1
9908 9909 1
9908 9911 1
9908 10454 1
9908 10522 1
9908 10523 1
9908 10526 1
9909 9910 1
9909 9911 1
9909 9912 1
9910 9911 1
9910 9912 1
9910 9913 1
9910 9915 1
9910 9961 1
9911 9912 1
9911 10523 1
9911 10526 1
9911 10527 1
9912 9913 1
9912 9915 1
9912 10458 1
9912 10526 1
9912 10527 1
9912 10530 1
9913 9914 1
9913 9915 1
9913 9916 1
9914 9915 1
9914 9916 1
9914 9917 1
9914 9919 1
9914 9961 1
9914 9962 1
9914 9963 1
9915 9916 1
9915 9961 1
9915 9962 1
9915 10527 1
9915 10530 1
9915 10531 1
9915 10578 1
9916 9917 1
9916 9919 1
9916 10462 1
9916 10530 1
9916 10531 1
9916 10534 1
9917 9918 1
9917 9919 1
9917 9920 1
9918 9919 1
9918 9920 1
9918 9921 1
9918 9923 1
9918 9963 1
9918 9966 1
9918 9967 1
9919 9920 1
9919 9962 1
9919 9963 1
9919 9966 1
9919 10531 1
9919 10534 1
9919 10535 1
9919 10580 1
9920 9921 1
9920 9923 1
9920 10466 1
9920 10534 1
9920 10535 1
9920 10538 1
9921 9922 1
9921 9923 1
9921 9924 1
9922 9923 1
9922 9924 1
9922 9925 1
9922 9927 1
9922 9967 1
9922 9970 1
9922 9971 1
9923 9924 1
9923 9966 1
9923 9967 1
9923 9970 1
9923 10535 1
9923 10538 1
9923 10539 1
9923 10584 1
9924 9925 1
9924 9927 1
9924 10470 1
9924 10538 1
9924 10539 1
9924 10542 1
9925 9926 1
9925 9927 1
9925 9928 1
9926 9927 1
9926 9928 1
9926 9929 1
9926 9931 1
9926 9971 1
9926 9974 1
9926 9975 1
9927 9928 1
9927 9970 1
9927 9971 1
9927 9974 1
9927 10539 1
9927 10542 1
9927 10543 1
9927 10588 1
9928 9929 1
9928 9931 1
9928 10474 1
9928 10542 1
9928 10543 1
9928 10546 1
9929 9930 1
9929 9931 1
9929 9932 1
9930 9931 1
9930 9932 1
9930 9933 1
9930 9935 1
9930 9975 1
9930 9978 1
9930 9979 1
9931 9932 1
9931 9974 1
9931 9975 1
9931 9978 1
9931 10543 1
9931 10546 1
9931 10547 1
9931 10592 1
9932 9933 1
9932 9935 1
9932 10478 1
9932 10546 1
9932 10547 1
9932 10550 1
9933 9934 1
9933 9935 1
9933 9936 1
9934 9935 1
9934 9936 1
9934 9979 1
9934 9982 1
9935 9936 1
9935 9978 1
9935 9979 1
9935 9982 1
9935 10547 1
9935 10550 1
9935 10551 1
9935 10596 1
9936 10482 1
9936 10550 1
9936 10551 1
9937 9938 1
9937 9939 1
9937 9940 1
9938 9939 1
9938 9940 1
9938 9941 1
9938 9943 1
9938 9983 1
9938 9986 1
9938 9987 1
9939 9940 1
9939 9983 1
9939 9986 1
9939 10554 1
9939 10555 1
9939 10600 1
9940 9941 1
9940 9943 1
9940 10486 1
9940 10554 1
9940 10555 1
9940 10558 1
9941 9942 1
9941 9943 1
9941 9944 1
9942 9943 1
9942 9944 1
9942 9945 1
9942 9947 1
9942 9987 1
9942 9990 1
9942 9991 1
9943 9944 1
9943 9986 1
9943 9987 1
9943 9990 1
9943 10555 1
9943 10558 1
9943 10559 1
9943 10604 1
9944 9945 1
9944 9947 1
9944 10490 1
9944 10558 1
9944 10559 1
9944 10562 1
9945 9946 1
9945 9947 1
9945 9948 1
9946 9947 1
9946 9948 1
9946 9949 1
9946 9951 1
9946 9991 1
9946 9994 1
9946 9995 1
9947 9948 1
9947 9990 1
9947 9991 1
9947 9994 1
9947 10559 1
9947 10562 1
9947 10563 1
9947 10608 1
9948 9949 1
9948 9951 1
9948 10494 1
9948 10562 1
9948 10563 1
9948 10566 1
9949 9950 1
9949 9951 1
9949 9952 1
9950 9951 1
9950 9952 1
9950 9953 1
9950 9955 1
9950 9995 1
9950 9998 1
9950 9999 1
9951 9952 1
9951 9994 1
9951 9995 1
9951 9998 1
9951 10563 1
9951 10566 1
9951 10567 1
9951 10612 1
9952 9953 1
9952 9955 1
9952 10498 1
9952 10566 1
9952 10567 1
9952 10570 1
9953 9954 1
9953 9955 1
9953 9956 1
9954 9955 1
9954 9956 1
9954 9957 1
9954 9958 1
9954 9999 1
9955 9956 1
9955 9998 1
9955 9999 1
9955 10567 1
9955 10570 1
9955 10571 1
9955 10616 1
9956 9957 1
9956 9958 1
9956 10502 1
9956 10570 1
9956 10571 1
9956 10574 1
9957 9958 1
9957 9959 1
9958 9959 1
9958 10571 1
9958 10574 1
9959 9960 1
9959 10506 1
9959 10574 1
9959 10577 1
9961 9962 1
9962 9963 1
9962 9965 1
9962 10531 1
9962 10578 1
9962 10580 1
9963 9964 1
9963 9965 1
9963 9966 1
9964 9965 1
9964 9966 1
9964 9967 1
9964 9969 1
9964 10000 1
9964 10001 1
9965 9966 1
9965 10000 1
9965 10580 1
9965 10581 1
9966 9967 1
9966 9969 1
9966 10535 1
9966 10580 1
9966 10581 1
9966 10584 1
9967 9968 1
9967 9969 1
9967 9970 1
9968 9969 1
9968 9970 1
9968 9971 1
9968 9973 1
9968 10001 1
9968 10004 1
9968 10005 1
9969 9970 1
9969 10000 1
9969 10001 1
9969 10004 1
9969 10581 1
9969 10584 1
9969 10585 1
9969 10618 1
9970 9971 1
9970 9973 1
9970 10539 1
9970 10584 1
9970 10585 1
9970 10588 1
9971 9972 1
9971 9973 1
9971 9974 1
9972 9973 1
9972 9974 1
9972 9975 1
9972 9977 1
9972 10005 1
9972 10008 1
9972 10009 1
9973 9974 1
9973 10004 1
9973 10005 1
9973 10008 1
9973 10585 1
9973 10588 1
9973 10589 1
9973 10622 1
9974 9975 1
9974 9977 1
9974 10543 1
9974 10588 1
9974 10589 1
9974 10592 1
9975 9976 1
9975 9977 1
9975 9978 1
9976 9977 1
9976 9978 1
9976 9979 1
9976 9981 1
9976 10009 1
9976 10012 1
9976 10013 1
9977 9978 1
9977 10008 1
9977 10009 1
9977 10012 1
9977 10589 1
9977 10592 1
9977 10593 1
9977 10626 1
9978 9979 1
9978 9981 1
9978 10547 1
9978 10592 1
9978 10593 1
9978 10596 1
9979 9980 1
9979 9981 1
9979 9982 1
9980 9981 1
9980 9982 1
9980 10013 1
9980 10016 1
9981 9982 1
9981 10012 1
9981 10013 1
9981 10016 1
9981 10593 1
9981 10596 1
9981 10597 1
9981 10630 1
9982 10551 1
9982 10596 1
9982 10597 1
9983 9984 1
9983 9985 1
9983 9986 1
9984 9985 1
9984 9986 1
9984 9987 1
9984 9989 1
9984 10017 1
9984 10020 1
9984 10021 1
9985 9986 1
9985 10017 1
9985 10020 1
9985 10600 1
9985 10601 1
9985 10634 1
9986 9987 1
9986 9989 1
9986 10555 1
9986 10600 1
9986 10601 1
9986 10604 1
9987 9988 1
9987 9989 1
9987 9990 1
9988 9989 1
9988 9990 1
9988 9991 1
9988 9993 1
9988 10021 1
9988 10024 1
9988 10025 1
9989 9990 1
9989 10020 1
9989 10021 1
9989 10024 1
9989 10601 1
9989 10604 1
9989 10605 1
9989 10638 1
9990 9991 1
9990 9993 1
9990 10559 1
9990 10604 1
9990 10605 1
9990 10608 1
9991 9992 1
9991 9993 1
9991 9994 1
9992 9993 1
9992 9994 1
9992 9995 1
9992 9997 1
9992 10025 1
9992 10028 1
9992 10029 1
9993 9994 1
9993 10024 1
9993 10025 1
9993 10028 1
9993 10605 1
9993 10608 1
9993 10609 1
9993 10642 1
9994 9995 1
9994 9997 1
9994 10563 1
9994 10608 1
9994 10609 1
9994 10612 1
9995 9996 1
9995 9997 1
9995 9998 1
9996 9997 1
9996 9998 1
9996 9999 1
9996 10029 1
9997 9998 1
9997 10028 1
9997 10029 1
9997 10609 1
9997 10612 1
9997 10613 1
9997 10646 1
9998 9999 1
9998 10567 1
9998 10612 1
9998 10613 1
9998 10616 1
10000 10001 1
10000 10003 1
10000 10581 1
10000 10618 1
10001 10002 1
10001 10003 1
10001 10004 1
10002 10003 1
10002 10004 1
10002 10005 1
10002 10007 1
10002 10030 1
10002 10031 1
10003 10004 1
10003 10030 1
10003 10618 1
10003 10619 1
10004 10005 1
10004 10007 1
10004 10585 1
10004 10618 1
10004 10619 1
10004 10622 1
10005 10006 1
10005 10007 1
10005 10008 1
10006 10007 1
10006 10008 1
10006 10009 1
10006 10011 1
10006 10031 1
10006 10034 1
10006 10035 1
10007 10008 1
10007 10030 1
10007 10031 1
10007 10034 1
10007 10619 1
10007 10622 1
10007 10623 1
10007 10648 1
10008 10009 1
10008 10011 1
10008 10589 1
10008 10622 1
10008 10623 1
10008 10626 1
10009 10010 1
10009 10011 1
10009 10012 1
10010 10011 1
10010 10012 1
10010 10013 1
10010 10015 1
10010 10035 1
10010 10038 1
10010 10039 1
10011 10012 1
10011 10034 1
10011 10035 1
10011 10038 1
10011 10623 1
10011 10626 1
10011 10627 1
10011 10652 1
10012 10013 1
10012 10015 1
10012 10593 1
10012 10626 1
10012 10627 1
10012 10630 1
10013 10014 1
10013 10015 1
10013 10016 1
10014 10015 1
10014 10016 1
10014 10039 1
10014 10042 1
10015 10016 1
10015 10038 1
10015 10039 1
10015 10042 1
10015 10627 1
10015 10630 1
10015 10631 1
10015 10656 1
10016 10597 1
10016 10630 1
10016 10631 1
10017 10018 1
10017 10019 1
10017 10020 1
10018 10019 1
10018 10020 1
10018 10021 1
10018 10023 1
10018 10043 1
10018 10046 1
10018 10047 1
10019 10020 1
10019 10043 1
10019 10046 1
10019 10634 1
10019 10635 1
10019 10660 1
10020 10021 1
10020 10023 1
10020 10601 1
10020 10634 1
10020 10635 1
10020 10638 1
10021 10022 1
10021 10023 1
10021 10024 1
10022 10023 1
10022 10024 1
10022 10025 1
10022 10027 1
10022 10047 1
10022 10050 1
10022 10051 1
10023 10024 1
10023 10046 1
10023 10047 1
10023 10050 1
10023 10635 1
10023 10638 1
10023 10639 1
10023 10664 1
10024 10025 1
10024 10027 1
10024 10605 1
10024 10638 1
10024 10639 1
10024 10642 1
10025 10026 1
10025 10027 1
10025 10028 1
10026 10027 1
10026 10028 1
10026 10029 1
10026 10051 1
10026 10053 1
10027 10028 1
10027 10050 1
10027 10051 1
10027 10053 1
10027 10639 1
10027 10642 1
10027 10643 1
10027 10668 1
10028 10029 1
10028 10609 1
10028 10642 1
10028 10643 1
10028 10646 1
10030 10031 1
10030 10033 1
10030 10619 1
10030 10648 1
10031 10032 1
10031 10033 1
10031 10034 1
10032 10033 1
10032 10034 1
10032 10035 1
10032 10037 1
10032 10055 1
10032 10056 1
10033 10034 1
10033 10055 1
10033 10648 1
10033 10649 1
10034 10035 1
10034 10037 1
10034 10623 1
10034 10648 1
10034 10649 1
10034 10652 1
10035 10036 1
10035 10037 1
10035 10038 1
10036 10037 1
10036 10038 1
10036 10039 1
10036 10041 1
10036 10056 1
10036 10059 1
10036 10060 1
10037 10038 1
10037 10055 1
10037 10056 1
10037 10059 1
10037 10649 1
10037 10652 1
10037 10653 1
10037 10673 1
10038 10039 1
10038 10041 1
10038 10627 1
10038 10652 1
10038 10653 1
10038 10656 1
10039 10040 1
10039 10041 1
10039 10042 1
10040 10041 1
10040 10042 1
10040 10060 1
10040 10063 1
10041 10042 1
10041 10059 1
10041 10060 1
10041 10063 1
10041 10653 1
10041 10656 1
10041 10657 1
10041 10677 1
10042 10631 1
10042 10656 1
10042 10657 1
10043 10044 1
10043 10045 1
10043 10046 1
10044 10045 1
10044 10046 1
10044 10047 1
10044 10049 1
10044 10064 1
10044 10067 1
10044 10068 1
10045 10046 1
10045 10064 1
10045 10067 1
10045 10660 1
10045 10661 1
10045 10681 1
10046 10047 1
10046 10049 1
10046 10635 1
10046 10660 1
10046 10661 1
10046 10664 1
10047 10048 1
10047 10049 1
10047 10050 1
10048 10049 1
10048 10050 1
10048 10051 1
10048 10052 1
10048 10068 1
10048 10071 1
10048 10072 1
10049 10050 1
10049 10067 1
10049 10068 1
10049 10071 1
10049 10661 1
10049 10664 1
10049 10665 1
10049 10685 1
10050 10051 1
10050 10052 1
10050 10639 1
10050 10664 1
10050 10665 1
10050 10668 1
10051 10052 1
10051 10053 1
10052 10053 1
10052 10071 1
10052 10072 1
10052 10665 1
10052 10668 1
10052 10689 1
10053 10643 1
10053 10668 1
10054 10055 1
10054 10056 1
10054 10058 1
10054 10073 1
10055 10056 1
10055 10058 1
10055 10649 1
10055 10671 1
10055 10673 1
10056 10057 1
10056 10058 1
10056 10059 1
10057 10058 1
10057 10059 1
10057 10060 1
10057 10062 1
10057 10073 1
10057 10076 1
10057 10077 1
10058 10059 1
10058 10073 1
10058 10076 1
10058 10671 1
10058 10673 1
10058 10674 1
10058 10690 1
10059 10060 1
10059 10062 1
10059 10653 1
10059 10673 1
10059 10674 1
10059 10677 1
10060 10061 1
10060 10062 1
10060 10063 1
10061 10062 1
10061 10063 1
10061 10077 1
10061 10080 1
10062 10063 1
10062 10076 1
10062 10077 1
10062 10080 1
10062 10674 1
10062 10677 1
10062 10678 1
10062 10694 1
10063 10657 1
10063 10677 1
10063 10678 1
10064 10065 1
10064 10066 1
10064 10067 1
10065 10066 1
10065 10067 1
10065 10068 1
10065 10070 1
10065 10081 1
10065 10084 1
10065 10085 1
10066 10067 1
10066 10081 1
10066 10084 1
10066 10681 1
10066 10682 1
10066 10698 1
10067 10068 1
10067 10070 1
10067 10661 1
10067 10681 1
10067 10682 1
10067 10685 1
10068 10069 1
10068 10070 1
10068 10071 1
10069 10070 1
10069 10071 1
10069 10072 1
10069 10085 1
10069 10088 1
10070 10071 1
10070 10084 1
10070 10085 1
10070 10088 1
10070 10682 1
10070 10685 1
10070 10686 1
10070 10702 1
10071 10072 1
10071 10665 1
10071 10685 1
10071 10686 1
10071 10689 1
10073 10074 1
10073 10075 1
10073 10076 1
10074 10075 1
10074 10076 1
10074 10077 1
10074 10079 1
10074 10089 1
10074 10091 1
10074 10092 1
10075 10076 1
10075 10089 1
10075 10091 1
10075 10690 1
10075 10691 1
10075 10706 1
10076 10077 1
10076 10079 1
10076 10674 1
10076 10690 1
10076 10691 1
10076 10694 1
10077 10078 1
10077 10079 1
10077 10080 1
10078 10079 1
10078 10080 1
10078 10092 1
10078 10095 1
10079 10080 1
10079 10091 1
10079 10092 1
10079 10095 1
10079 10691 1
10079 10694 1
10079 10695 1
10079 10709 1
10080 10678 1
10080 10694 1
10080 10695 1
10081 10082 1
10081 10083 1
10081 10084 1
10082 10083 1
10082 10084 1
10082 10085 1
10082 10087 1
10082 10096 1
10082 10099 1
10082 10100 1
10083 10084 1
10083 10096 1
10083 10099 1
10083 10698 1
10083 10699 1
10083 10713 1
10084 10085 1
10084 10087 1
10084 10682 1
10084 10698 1
10084 10699 1
10084 10702 1
10085 10086 1
10085 10087 1
10085 10088 1
10086 10087 1
10086 10088 1
10086 10100 1
10086 10102 1
10087 10088 1
10087 10099 1
10087 10100 1
10087 10102 1
10087 10699 1
10087 10702 1
10087 10703 1
10087 10717 1
10088 10686 1
10088 10702 1
10088 10703 1
10089 10090 1
10089 10091 1
10090 10091 1
10090 10092 1
10090 10094 1
10090 10104 1
10090 10105 1
10091 10092 1
10091 10094 1
10091 10691 1
10091 10706 1
10091 10707 1
10091 10709 1
10092 10093 1
10092 10094 1
10092 10095 1
10093 10094 1
10093 10095 1
10093 10105 1
10093 10108 1
10094 10095 1
10094 10104 1
10094 10105 1
10094 10108 1
10094 10707 1
10094 10709 1
10094 10710 1
10094 10722 1
10095 10695 1
10095 10709 1
10095 10710 1
10096 10097 1
10096 10098 1
10096 10099 1
10097 10098 1
10097 10099 1
10097 10100 1
10097 10101 1
10097 10109 1
10097 10112 1
10097 10113 1
10098 10099 1
10098 10109 1
10098 10112 1
10098 10713 1
10098 10714 1
10098 10726 1
10099 10100 1
10099 10101 1
10099 10699 1
10099 10713 1
10099 10714 1
10099 10717 1
10100 10101 1
10100 10102 1
10101 10102 1
10101 10112 1
10101 10113 1
10101 10714 1
10101 10717 1
10101 10730 1
10102 10703 1
10102 10717 1
10103 10104 1
10103 10105 1
10103 10107 1
10103 10116 1
10103 10117 1
10104 10105 1
10104 10107 1
10104 10707 1
10104 10720 1
10104 10722 1
10105 10106 1
10105 10107 1
10105 10108 1
10106 10107 1
10106 10108 1
10106 10117 1
10106 10120 1
10107 10108 1
10107 10116 1
10107 10117 1
10107 10120 1
10107 10720 1
10107 10722 1
10107 10723 1
10107 10734 1
10108 10710 1
10108 10722 1
10108 10723 1
10109 10110 1
10109 10111 1
10109 10112 1
10110 10111 1
10110 10112 1
10110 10113 1
10110 10114 1
10110 10121 1
10110 10124 1
10110 10125 1
10111 10112 1
10111 10121 1
10111 10124 1
10111 10726 1
10111 10727 1
10111 10738 1
10112 10113 1
10112 10114 1
10112 10714 1
10112 10726 1
10112 10727 1
10112 10730 1
10113 10114 1
10114 10124 1
10114 10125 1
10114 10128 1
10114 10727 1
10114 10730 1
10114 10742 1
10115 10116 1
10115 10117 1
10115 10119 1
10115 10131 1
10115 10132 1
10116 10117 1
10116 10119 1
10116 10720 1
10116 10732 1
10116 10734 1
10117 10118 1
10117 10119 1
10117 10120 1
10118 10119 1
10118 10120 1
10118 10132 1
10118 10135 1
10119 10120 1
10119 10131 1
10119 10132 1
10119 10135 1
10119 10732 1
10119 10734 1
10119 10735 1
10119 10749 1
10120 10723 1
10120 10734 1
10120 10735 1
10121 10122 1
10121 10123 1
10121 10124 1
10122 10123 1
10122 10124 1
10122 10125 1
10122 10127 1
10122 10136 1
10122 10139 1
10122 10140 1
10123 10124 1
10123 10136 1
10123 10139 1
10123 10738 1
10123 10739 1
10123 10753 1
10124 10125 1
10124 10127 1
10124 10727 1
10124 10738 1
10124 10739 1
10124 10742 1
10125 10126 1
10125 10127 1
10125 10128 1
10126 10127 1
10126 10128 1
10126 10140 1
10126 10143 1
10127 10128 1
10127 10139 1
10127 10140 1
10127 10143 1
10127 10739 1
10127 10742 1
10127 10743 1
10127 10757 1
10128 10742 1
10128 10743 1
10129 10130 1
10129 10131 1
10129 10132 1
10129 10134 1
10129 10144 1
10129 10147 1
10129 10148 1
10130 10131 1
10130 10144 1
10130 10147 1
10130 10746 1
10130 10761 1
10131 10132 1
10131 10134 1
10131 10732 1
10131 10746 1
10131 10749 1
10132 10133 1
10132 10134 1
10132 10135 1
10133 10134 1
10133 10135 1
10133 10148 1
10133 10151 1
10134 10135 1
10134 10147 1
10134 10148 1
10134 10151 1
10134 10746 1
10134 10749 1
10134 10750 1
10134 10765 1
10135 10735 1
10135 10749 1
10135 10750 1
10136 10137 1
10136 10138 1
10136 10139 1
10137 10138 1
10137 10139 1
10137 10140 1
10137 10142 1
10137 10152 1
10137 10155 1
10137 10156 1
10138 10139 1
10138 10152 1
10138 10155 1
10138 10753 1
10138 10754 1
10138 10769 1
10139 10140 1
10139 10142 1
10139 10739 1
10139 10753 1
10139 10754 1
10139 10757 1
10140 10141 1
10140 10142 1
10140 10143 1
10141 10142 1
10141 10143 1
10141 10156 1
10141 10159 1
10141 10160 1
10142 10143 1
10142 10155 1
10142 10156 1
10142 10159 1
10142 10754 1
10142 10757 1
10142 10758 1
10142 10773 1
10143 10743 1
10143 10757 1
10143 10758 1
10144 10145 1
10144 10146 1
10144 10147 1
10145 10146 1
10145 10147 1
10145 10148 1
10145 10150 1
10145 10164 1
10145 10167 1
10145 10168 1
10146 10147 1
10146 10163 1
10146 10164 1
10146 10167 1
10146 10761 1
10146 10762 1
10146 10781 1
10147 10148 1
10147 10150 1
10147 10746 1
10147 10761 1
10147 10762 1
10147 10765 1
10148 10149 1
10148 10150 1
10148 10151 1
10149 10150 1
10149 10151 1
10149 10168 1
10149 10171 1
10150 10151 1
10150 10167 1
10150 10168 1
10150 10171 1
10150 10762 1
10150 10765 1
10150 10766 1
10150 10785 1
10151 10750 1
10151 10765 1
10151 10766 1
10152 10153 1
10152 10154 1
10152 10155 1
10153 10154 1
10153 10155 1
10153 10156 1
10153 10158 1
10153 10172 1
10153 10175 1
10153 10176 1
10154 10155 1
10154 10172 1
10154 10175 1
10154 10769 1
10154 10770 1
10154 10789 1
10155 10156 1
10155 10158 1
10155 10754 1
10155 10769 1
10155 10770 1
10155 10773 1
10156 10157 1
10156 10158 1
10156 10159 1
10157 10158 1
10157 10159 1
10157 10160 1
10157 10161 1
10157 10176 1
10157 10179 1
10157 10180 1
10158 10159 1
10158 10175 1
10158 10176 1
10158 10179 1
10158 10770 1
10158 10773 1
10158 10774 1
10158 10793 1
10159 10160 1
10159 10161 1
10159 10758 1
10159 10773 1
10159 10774 1
10159 10777 1
10160 10161 1
10161 10179 1
10161 10180 1
10161 10183 1
10161 10774 1
10161 10777 1
10161 10797 1
10162 10163 1
10162 10164 1
10162 10166 1
10162 10186 1
10162 10189 1
10162 10190 1
10163 10164 1
10163 10166 1
10163 10779 1
10163 10781 1
10164 10165 1
10164 10166 1
10164 10167 1
10165 10166 1
10165 10167 1
10165 10168 1
10165 10170 1
10165 10190 1
10165 10193 1
10165 10194 1
10166 10167 1
10166 10189 1
10166 10190 1
10166 10193 1
10166 10779 1
10166 10781 1
10166 10782 1
10166 10807 1
10167 10168 1
10167 10170 1
10167 10762 1
10167 10781 1
10167 10782 1
10167 10785 1
10168 10169 1
10168 10170 1
10168 10171 1
10169 10170 1
10169 10171 1
10169 10194 1
10169 10197 1
10170 10171 1
10170 10193 1
10170 10194 1
10170 10197 1
10170 10782 1
10170 10785 1
10170 10786 1
10170 10811 1
10171 10766 1
10171 10785 1
10171 10786 1
10172 10173 1
10172 10174 1
10172 10175 1
10173 10174 1
10173 10175 1
10173 10176 1
10173 10178 1
10173 10198 1
10173 10201 1
10173 10202 1
10174 10175 1
10174 10198 1
10174 10201 1
10174 10789 1
10174 10790 1
10174 10815 1
10175 10176 1
10175 10178 1
10175 10770 1
10175 10789 1
10175 10790 1
10175 10793 1
10176 10177 1
10176 10178 1
10176 10179 1
10177 10178 1
10177 10179 1
10177 10180 1
10177 10182 1
10177 10202 1
10177 10205 1
10177 10206 1
10178 10179 1
10178 10201 1
10178 10202 1
10178 10205 1
10178 10790 1
10178 10793 1
10178 10794 1
10178 10819 1
10179 10180 1
10179 10182 1
10179 10774 1
10179 10793 1
10179 10794 1
10179 10797 1
10180 10181 1
10180 10182 1
10180 10183 1
10181 10182 1
10181 10183 1
10181 10184 1
10181 10206 1
10181 10209 1
10181 10210 1
10182 10183 1
10182 10205 1
10182 10206 1
10182 10209 1
10182 10794 1
10182 10797 1
10182 10798 1
10182 10823 1
10183 10184 1
10183 10797 1
10183 10798 1
10184 10209 1
10184 10210 1
10184 10213 1
10184 10798 1
10184 10827 1
10185 10186 1
10185 10188 1
10185 10218 1
10185 10219 1
10186 10187 1
10186 10188 1
10186 10189 1
10187 10188 1
10187 10189 1
10187 10190 1
10187 10192 1
10187 10219 1
10187 10222 1
10187 10223 1
10188 10189 1
10188 10218 1
10188 10219 1
10188 10222 1
10188 10802 1
10188 10803 1
10188 10804 1
10188 10836 1
10189 10190 1
10189 10192 1
10189 10779 1
10189 10803 1
10189 10804 1
10189 10807 1
10190 10191 1
10190 10192 1
10190 10193 1
10191 10192 1
10191 10193 1
10191 10194 1
10191 10196 1
10191 10223 1
10191 10226 1
10191 10227 1
10192 10193 1
10192 10222 1
10192 10223 1
10192 10226 1
10192 10804 1
10192 10807 1
10192 10808 1
10192 10840 1
10193 10194 1
10193 10196 1
10193 10782 1
10193 10807 1
10193 10808 1
10193 10811 1
10194 10195 1
10194 10196 1
10194 10197 1
10195 10196 1
10195 10197 1
10195 10227 1
10195 10230 1
10196 10197 1
10196 10226 1
10196 10227 1
10196 10230 1
10196 10808 1
10196 10811 1
10196 10812 1
10196 10844 1
10197 10786 1
10197 10811 1
10197 10812 1
10198 10199 1
10198 10200 1
10198 10201 1
10199 10200 1
10199 10201 1
10199 10202 1
10199 10204 1
10199 10231 1
10199 10234 1
10199 10235 1
10200 10201 1
10200 10231 1
10200 10234 1
10200 10815 1
10200 10816 1
10200 10848 1
10201 10202 1
10201 10204 1
10201 10790 1
10201 10815 1
10201 10816 1
10201 10819 1
10202 10203 1
10202 10204 1
10202 10205 1
10203 10204 1
10203 10205 1
10203 10206 1
10203 10208 1
10203 10235 1
10203 10238 1
10203 10239 1
10204 10205 1
10204 10234 1
10204 10235 1
10204 10238 1
10204 10816 1
10204 10819 1
10204 10820 1
10204 10852 1
10205 10206 1
10205 10208 1
10205 10794 1
10205 10819 1
10205 10820 1
10205 10823 1
10206 10207 1
10206 10208 1
10206 10209 1
10207 10208 1
10207 10209 1
10207 10210 1
10207 10212 1
10207 10239 1
10207 10242 1
10207 10243 1
10208 10209 1
10208 10238 1
10208 10239 1
10208 10242 1
10208 10820 1
10208 10823 1
10208 10824 1
10208 10856 1
10209 10210 1
10209 10212 1
10209 10798 1
10209 10823 1
10209 10824 1
10209 10827 1
10210 10211 1
10210 10212 1
10210 10213 1
10211 10212 1
10211 10213 1
10211 10214 1
10211 10243 1
10211 10246 1
10211 10247 1
10212 10213 1
10212 10242 1
10212 10243 1
10212 10246 1
10212 10824 1
10212 10827 1
10212 10828 1
10212 10860 1
10213 10214 1
10213 10827 1
10213 10828 1
10214 10246 1
10214 10247 1
10214 10250 1
10214 10828 1
10214 10864 1
10215 10217 1
10215 10255 1
10215 10258 1
10215 10259 1
10216 10217 1
10216 10218 1
10216 10219 1
10216 10221 1
10216 10259 1
10216 10262 1
10216 10263 1
10217 10218 1
10217 10258 1
10217 10259 1
10217 10262 1
10217 10832 1
10217 10833 1
10217 10876 1
10218 10219 1
10218 10221 1
10218 10802 1
10218 10833 1
10218 10836 1
10219 10220 1
10219 10221 1
10219 10222 1
10220 10221 1
10220 10222 1
10220 10223 1
10220 10225 1
10220 10263 1
10220 10266 1
10220 10267 1
10221 10222 1
10221 10262 1
10221 10263 1
10221 10266 1
10221 10833 1
10221 10836 1
10221 10837 1
10221 10880 1
10222 10223 1
10222 10225 1
10222 10804 1
10222 10836 1
10222 10837 1
10222 10840 1
10223 10224 1
10223 10225 1
10223 10226 1
10224 10225 1
10224 10226 1
10224 10227 1
10224 10229 1
10224 10267 1
10224 10270 1
10224 10271 1
10225 10226 1
10225 10266 1
10225 10267 1
10225 10270 1
10225 10837 1
10225 10840 1
10225 10841 1
10225 10884 1
10226 10227 1
10226 10229 1
10226 10808 1
10226 10840 1
10226 10841 1
10226 10844 1
10227 10228 1
10227 10229 1
10227 10230 1
10228 10229 1
10228 10230 1
10228 10271 1
10228 10274 1
10229 10230 1
10229 10270 1
10229 10271 1
10229 10274 1
10229 10841 1
10229 10844 1
10229 10845 1
10229 10888 1
10230 10812 1
10230 10844 1
10230 10845 1
10231 10232 1
10231 10233 1
10231 10234 1
10232 10233 1
10232 10234 1
10232 10235 1
10232 10237 1
10232 10275 1
10232 10278 1
10232 10279 1
10233 10234 1
10233 10275 1
10233 10278 1
10233 10848 1
10233 10849 1
10233 10892 1
10234 10235 1
10234 10237 1
10234 10816 1
10234 10848 1
10234 10849 1
10234 10852 1
10235 10236 1
10235 10237 1
10235 10238 1
10236 10237 1
10236 10238 1
10236 10239 1
10236 10241 1
10236 10279 1
10236 10282 1
10236 10283 1
10237 10238 1
10237 10278 1
10237 10279 1
10237 10282 1
10237 10849 1
10237 10852 1
10237 10853 1
10237 10896 1
10238 10239 1
10238 10241 1
10238 10820 1
10238 10852 1
10238 10853 1
10238 10856 1
10239 10240 1
10239 10241 1
10239 10242 1
10240 10241 1
10240 10242 1
10240 10243 1
10240 10245 1
10240 10283 1
10240 10286 1
10240 10287 1
10241 10242 1
10241 10282 1
10241 10283 1
10241 10286 1
10241 10853 1
10241 10856 1
10241 10857 1
10241 10900 1
10242 10243 1
10242 10245 1
10242 10824 1
10242 10856 1
10242 10857 1
10242 10860 1
10243 10244 1
10243 10245 1
10243 10246 1
10244 10245 1
10244 10246 1
10244 10247 1
10244 10249 1
10244 10287 1
10244 10290 1
10244 10291 1
10245 10246 1
10245 10286 1
10245 10287 1
10245 10290 1
10245 10857 1
10245 10860 1
10245 10861 1
10245 10904 1
10246 10247 1
10246 10249 1
10246 10828 1
10246 10860 1
10246 10861 1
10246 10864 1
10247 10248 1
10247 10249 1
10247 10250 1
10248 10249 1
10248 10250 1
10248 10252 1
10248 10291 1
10248 10294 1
10248 10295 1
10249 10250 1
10249 10290 1
10249 10291 1
10249 10294 1
10249 10861 1
10249 10864 1
10249 10865 1
10249 10908 1
10250 10252 1
10250 10864 1
10250 10865 1
10251 10252 1
10251 10295 1
10251 10298 1
10251 10299 1
10252 10294 1
10252 10295 1
10252 10298 1
10252 10865 1
10252 10868 1
10252 10912 1
10253 10254 1
10253 10255 1
10253 10257 1
10253 10317 1
10253 10320 1
10253 10321 1
10254 10316 1
10254 10317 1
10254 10320 1
10254 10870 1
10254 10934 1
10255 10256 1
10255 10257 1
10255 10258 1
10256 10257 1
10256 10258 1
10256 10259 1
10256 10261 1
10256 10321 1
10256 10324 1
10256 10325 1
10257 10258 1
10257 10320 1
10257 10321 1
10257 10324 1
10257 10870 1
10257 10872 1
10257 10873 1
10257 10938 1
10258 10259 1
10258 10261 1
10258 10832 1
10258 10872 1
10258 10873 1
10258 10876 1
10259 10260 1
10259 10261 1
10259 10262 1
10260 10261 1
10260 10262 1
10260 10263 1
10260 10265 1
10260 10325 1
10260 10328 1
10260 10329 1
10261 10262 1
10261 10324 1
10261 10325 1
10261 10328 1
10261 10873 1
10261 10876 1
10261 10877 1
10261 10942 1
10262 10263 1
10262 10265 1
10262 10833 1
10262 10876 1
10262 10877 1
10262 10880 1
10263 10264 1
10263 10265 1
10263 10266 1
10264 10265 1
10264 10266 1
10264 10267 1
10264 10269 1
10264 10329 1
10264 10332 1
10264 10333 1
10265 10266 1
10265 10328 1
10265 10329 1
10265 10332 1
10265 10877 1
10265 10880 1
10265 10881 1
10265 10946 1
10266 10267 1
10266 10269 1
10266 10837 1
10266 10880 1
10266 10881 1
10266 10884 1
10267 10268 1
10267 10269 1
10267 10270 1
10268 10269 1
10268 10270 1
10268 10271 1
10268 10273 1
10268 10333 1
10268 10336 1
10268 10337 1
10269 10270 1
10269 10332 1
10269 10333 1
10269 10336 1
10269 10881 1
10269 10884 1
10269 10885 1
10269 10950 1
10270 10271 1
10270 10273 1
10270 10841 1
10270 10884 1
10270 10885 1
10270 10888 1
10271 10272 1
10271 10273 1
10271 10274 1
10272 10273 1
10272 10274 1
10272 10337 1
10272 10340 1
10273 10274 1
10273 10336 1
10273 10337 1
10273 10340 1
10273 10885 1
10273 10888 1
10273 10889 1
10273 10954 1
10274 10845 1
10274 10888 1
10274 10889 1
10275 10276 1
10275 10277 1
10275 10278 1
10276 10277 1
10276 10278 1
10276 10279 1
10276 10281 1
10276 10341 1
10276 10344 1
10276 10345 1
10277 10278 1
10277 10341 1
10277 10344 1
10277 10892 1
10277 10893 1
10277 10958 1
10278 10279 1
10278 10281 1
10278 10849 1
10278 10892 1
10278 10893 1
10278 10896 1
10279 10280 1
10279 10281 1
10279 10282 1
10280 10281 1
10280 10282 1
10280 10283 1
10280 10285 1
10280 10345 1
10280 10348 1
10280 10349 1
10281 10282 1
10281 10344 1
10281 10345 1
10281 10348 1
10281 10893 1
10281 10896 1
10281 10897 1
10281 10962 1
10282 10283 1
10282 10285 1
10282 10853 1
10282 10896 1
10282 10897 1
10282 10900 1
10283 10284 1
10283 10285 1
10283 10286 1
10284 10285 1
10284 10286 1
10284 10287 1
10284 10289 1
10284 10349 1
10284 10352 1
10284 10353 1
10285 10286 1
10285 10348 1
10285 10349 1
10285 10352 1
10285 10897 1
10285 10900 1
10285 10901 1
10285 10966 1
10286 10287 1
10286 10289 1
10286 10857 1
10286 10900 1
10286 10901 1
10286 10904 1
10287 10288 1
10287 10289 1
10287 10290 1
10288 10289 1
10288 10290 1
10288 10291 1
10288 10293 1
10288 10353 1
10288 10356 1
10288 10357 1
10289 10290 1
10289 10352 1
10289 10353 1
10289 10356 1
10289 10901 1
10289 10904 1
10289 10905 1
10289 10970 1
10290 10291 1
10290 10293 1
10290 10861 1
10290 10904 1
10290 10905 1
10290 10908 1
10291 10292 1
10291 10293 1
10291 10294 1
10292 10293 1
10292 10294 1
10292 10295 1
10292 10297 1
10292 10357 1
10292 10360 1
10292 10361 1
10293 10294 1
10293 10356 1
10293 10357 1
10293 10360 1
10293 10905 1
10293 10908 1
10293 10909 1
10293 10974 1
10294 10295 1
10294 10297 1
10294 10865 1
10294 10908 1
10294 10909 1
10294 10912 1
10295 10296 1
10295 10297 1
10295 10298 1
10296 10297 1
10296 10298 1
10296 10299 1
10296 10301 1
10296 10361 1
10296 10364 1
10296 10365 1
10297 10298 1
10297 10360 1
10297 10361 1
10297 10364 1
10297 10909 1
10297 10912 1
10297 10913 1
10297 10978 1
10298 10299 1
10298 10301 1
10298 10868 1
10298 10912 1
10298 10913 1
10298 10916 1
10299 10300 1
10299 10301 1
10299 10302 1
10300 10301 1
10300 10302 1
10300 10303 1
10300 10305 1
10300 10365 1
10300 10368 1
10300 10369 1
10301 10302 1
10301 10364 1
10301 10365 1
10301 10368 1
10301 10913 1
10301 10916 1
10301 10917 1
10301 10982 1
10302 10303 1
10302 10305 1
10302 10916 1
10302 10917 1
10302 10920 1
10303 10304 1
10303 10305 1
10304 10305 1
10304 10307 1
10304 10369 1
10304 10372 1
10304 10373 1
10305 10368 1
10305 10369 1
10305 10372 1
10305 10917 1
10305 10920 1
10305 10921 1
10305 10986 1
10306 10307 1
10306 10309 1
10306 10373 1
10306 10376 1
10306 10377 1
10307 10372 1
10307 10373 1
10307 10376 1
10307 10921 1
10307 10923 1
10307 10990 1
10308 10309 1
10308 10311 1
10308 10377 1
10308 10380 1
10308 10381 1
10309 10376 1
10309 10377 1
10309 10380 1
10309 10923 1
10309 10925 1
10309 10994 1
10310 10311 1
10310 10312 1
10310 10313 1
10310 10315 1
10310 10381 1
10310 10384 1
10310 10385 1
10311 10312 1
10311 10380 1
10311 10381 1
10311 10384 1
10311 10925 1
10311 10927 1
10311 10998 1
10312 10313 1
10312 10315 1
10312 10927 1
10312 10930 1
10313 10314 1
10313 10315 1
10313 10316 1
10314 10315 1
10314 10316 1
10314 10317 1
10314 10319 1
10314 10385 1
10314 10388 1
10314 10389 1
10315 10316 1
10315 10384 1
10315 10385 1
10315 10388 1
10315 10927 1
10315 10930 1
10315 10931 1
10315 11002 1
10316 10317 1
10316 10319 1
10316 10930 1
10316 10931 1
10316 10934 1
10317 10318 1
10317 10319 1
10317 10320 1
10318 10319 1
10318 10320 1
10318 10321 1
10318 10323 1
10318 10389 1
10318 10392 1
10318 10393 1
10319 10320 1
10319 10388 1
10319 10389 1
10319 10392 1
10319 10931 1
10319 10934 1
10319 10935 1
10319 11006 1
10320 10321 1
10320 10323 1
10320 10870 1
10320 10934 1
10320 10935 1
10320 10938 1
10321 10322 1
10321 10323 1
10321 10324 1
10322 10323 1
10322 10324 1
10322 10325 1
10322 10327 1
10322 10393 1
10322 10396 1
10322 10397 1
10323 10324 1
10323 10392 1
10323 10393 1
10323 10396 1
10323 10935 1
10323 10938 1
10323 10939 1
10323 11010 1
10324 10325 1
10324 10327 1
10324 10873 1
10324 10938 1
10324 10939 1
10324 10942 1
10325 10326 1
10325 10327 1
10325 10328 1
10326 10327 1
10326 10328 1
10326 10329 1
10326 10331 1
10326 10397 1
10326 10400 1
10326 10401 1
10327 10328 1
10327 10396 1
10327 10397 1
10327 10400 1
10327 10939 1
10327 10942 1
10327 10943 1
10327 11014 1
10328 10329 1
10328 10331 1
10328 10877 1
10328 10942 1
10328 10943 1
10328 10946 1
10329 10330 1
10329 10331 1
10329 10332 1
10330 10331 1
10330 10332 1
10330 10333 1
10330 10335 1
10330 10401 1
10330 10404 1
10330 10405 1
10331 10332 1
10331 10400 1
10331 10401 1
10331 10404 1
10331 10943 1
10331 10946 1
10331 10947 1
10331 11018 1
10332 10333 1
10332 10335 1
10332 10881 1
10332 10946 1
10332 10947 1
10332 10950 1
10333 10334 1
10333 10335 1
10333 10336 1
10334 10335 1
10334 10336 1
10334 10337 1
10334 10339 1
10334 10405 1
10334 10408 1
10334 10409 1
10335 10336 1
10335 10404 1
10335 10405 1
10335 10408 1
10335 10947 1
10335 10950 1
10335 10951 1
10335 11022 1
10336 10337 1
10336 10339 1
10336 10885 1
10336 10950 1
10336 10951 1
10336 10954 1
10337 10338 1
10337 10339 1
10337 10340 1
10338 10339 1
10338 10340 1
10338 10409 1
10338 10412 1
10339 10340 1
10339 10408 1
10339 10409 1
10339 10412 1
10339 10951 1
10339 10954 1
10339 10955 1
10339 11026 1
10340 10889 1
10340 10954 1
10340 10955 1
10341 10342 1
10341 10343 1
10341 10344 1
10342 10343 1
10342 10344 1
10342 10345 1
10342 10347 1
10343 10344 1
10343 10958 1
10343 10959 1
10344 10345 1
10344 10347 1
10344 10893 1
10344 10958 1
10344 10959 1
10344 10962 1
10345 10346 1
10345 10347 1
10345 10348 1
10346 10347 1
10346 10348 1
10346 10349 1
10346 10351 1
10347 10348 1
10347 10959 1
10347 10962 1
10347 10963 1
10348 10349 1
10348 10351 1
10348 10897 1
10348 10962 1
10348 10963 1
10348 10966 1
10349 10350 1
10349 10351 1
10349 10352 1
10350 10351 1
10350 10352 1
10350 10353 1
10350 10355 1
10351 10352 1
10351 10963 1
10351 10966 1
10351 10967 1
10352 10353 1
10352 10355 1
10352 10901 1
10352 10966 1
10352 10967 1
10352 10970 1
10353 10354 1
10353 10355 1
10353 10356 1
10354 10355 1
10354 10356 1
10354 10357 1
10354 10359 1
10355 10356 1
10355 10967 1
10355 10970 1
10355 10971 1
10356 10357 1
10356 10359 1
10356 10905 1
10356 10970 1
10356 10971 1
10356 10974 1
10357 10358 1
10357 10359 1
10357 10360 1
10358 10359 1
10358 10360 1
10358 10361 1
10358 10363 1
10359 10360 1
10359 10971 1
10359 10974 1
10359 10975 1
10360 10361 1
10360 10363 1
10360 10909 1
10360 10974 1
10360 10975 1
10360 10978 1
10361 10362 1
10361 10363 1
10361 10364 1
10362 10363 1
10362 10364 1
10362 10365 1
10362 10367 1
10363 10364 1
10363 10975 1
10363 10978 1
10363 10979 1
10364 10365 1
10364 10367 1
10364 10913 1
10364 10978 1
10364 10979 1
10364 10982 1
10365 10366 1
10365 10367 1
10365 10368 1
10366 10367 1
10366 10368 1
10366 10369 1
10366 10371 1
10367 10368 1
10367 10979 1
10367 10982 1
10367 10983 1
10368 10369 1
10368 10371 1
10368 10917 1
10368 10982 1
10368 10983 1
10368 10986 1
10369 10370 1
10369 10371 1
10369 10372 1
10370 10371 1
10370 10372 1
10370 10373 1
10370 10375 1
10371 10372 1
10371 10983 1
10371 10986 1
10371 10987 1
10372 10373 1
10372 10375 1
10372 10921 1
10372 10986 1
10372 10987 1
10372 10990 1
10373 10374 1
10373 10375 1
10373 10376 1
10374 10375 1
10374 10376 1
10374 10377 1
10374 10379 1
10375 10376 1
10375 10987 1
10375 10990 1
10375 10991 1
10376 10377 1
10376 10379 1
10376 10923 1
10376 10990 1
10376 10991 1
10376 10994 1
10377 10378 1
10377 10379 1
10377 10380 1
10378 10379 1
10378 10380 1
10378 10381 1
10378 10383 1
10379 10380 1
10379 10991 1
10379 10994 1
10379 10995 1
10380 10381 1
10380 10383 1
10380 10925 1
10380 10994 1
10380 10995 1
10380 10998 1
10381 10382 1
10381 10383 1
10381 10384 1
10382 10383 1
10382 10384 1
10382 10385 1
10382 10387 1
10383 10384 1
10383 10995 1
10383 10998 1
10383 10999 1
10384 10385 1
10384 10387 1
10384 10927 1
10384 10998 1
10384 10999 1
10384 11002 1
10385 10386 1
10385 10387 1
10385 10388 1
10386 10387 1
10386 10388 1
10386 10389 1
10386 10391 1
10387 10388 1
10387 10999 1
10387 11002 1
10387 11003 1
10388 10389 1
10388 10391 1
10388 10931 1
10388 11002 1
10388 11003 1
10388 11006 1
10389 10390 1
10389 10391 1
10389 10392 1
10390 10391 1
10390 10392 1
10390 10393 1
10390 10395 1
10391 10392 1
10391 11003 1
10391 11006 1
10391 11007 1
10392 10393 1
10392 10395 1
10392 10935 1
10392 11006 1
10392 11007 1
10392 11010 1
10393 10394 1
10393 10395 1
10393 10396 1
10394 10395 1
10394 10396 1
10394 10397 1
10394 10399 1
10395 10396 1
10395 11007 1
10395 11010 1
10395 11011 1
10396 10397 1
10396 10399 1
10396 10939 1
10396 11010 1
10396 11011 1
10396 11014 1
10397 10398 1
10397 10399 1
10397 10400 1
10398 10399 1
10398 10400 1
10398 10401 1
10398 10403 1
10399 10400 1
10399 11011 1
10399 11014 1
10399 11015 1
10400 10401 1
10400 10403 1
10400 10943 1
10400 11014 1
10400 11015 1
10400 11018 1
10401 10402 1
10401 10403 1
10401 10404 1
10402 10403 1
10402 10404 1
10402 10405 1
10402 10407 1
10403 10404 1
10403 11015 1
10403 11018 1
10403 11019 1
10404 10405 1
10404 10407 1
10404 10947 1
10404 11018 1
10404 11019 1
10404 11022 1
10405 10406 1
10405 10407 1
10405 10408 1
10406 10407 1
10406 10408 1
10406 10409 1
10406 10411 1
10407 10408 1
10407 11019 1
10407 11022 1
10407 11023 1
10408 10409 1
10408 10411 1
10408 10951 1
10408 11022 1
10408 11023 1
10408 11026 1
10409 10410 1
10409 10411 1
10409 10412 1
10410 10411 1
10410 10412 1
10411 10412 1
10411 11023 1
10411 11026 1
10411 11027 1
10412 10955 1
10412 11026 1
10412 11027 1
10413 10414 1
10413 10415 1
10413 10416 1
10414 10415 1
10414 10416 1
10414 10417 1
10414 10419 1
10414 10485 1
10414 10488 1
10414 10489 1
10415 10416 1
10415 10485 1
10415 10488 1
10415 11030 1
10415 11031 1
10415 11102 1
10416 10417 1
10416 10419 1
10416 11030 1
10416 11031 1
10416 11034 1
10417 10418 1
10417 10419 1
10417 10420 1
10418 10419 1
10418 10420 1
10418 10421 1
10418 10423 1
10418 10489 1
10418 10492 1
10418 10493 1
10419 10420 1
10419 10488 1
10419 10489 1
10419 10492 1
10419 11031 1
10419 11034 1
10419 11035 1
10419 11106 1
10420 10421 1
10420 10423 1
10420 11034 1
10420 11035 1
10420 11038 1
10421 10422 1
10421 10423 1
10421 10424 1
10422 10423 1
10422 10424 1
10422 10425 1
10422 10427 1
10422 10493 1
10422 10496 1
10422 10497 1
10423 10424 1
10423 10492 1
10423 10493 1
10423 10496 1
10423 11035 1
10423 11038 1
10423 11039 1
10423 11110 1
10424 10425 1
10424 10427 1
10424 11038 1
10424 11039 1
10424 11042 1
10425 10426 1
10425 10427 1
10425 10428 1
10426 10427 1
10426 10428 1
10426 10429 1
10426 10431 1
10426 10497 1
10426 10500 1
10426 10501 1
10427 10428 1
10427 10496 1
10427 10497 1
10427 10500 1
10427 11039 1
10427 11042 1
10427 11043 1
10427 11114 1
10428 10429 1
10428 10431 1
10428 11042 1
10428 11043 1
10428 11046 1
10429 10430 1
10429 10431 1
10429 10432 1
10430 10431 1
10430 10432 1
10430 10433 1
10430 10435 1
10430 10501 1
10430 10504 1
10430 10505 1
10431 10432 1
10431 10500 1
10431 10501 1
10431 10504 1
10431 11043 1
10431 11046 1
10431 11047 1
10431 11118 1
10432 10433 1
10432 10435 1
10432 11046 1
10432 11047 1
10432 11050 1
10433 10434 1
10433 10435 1
10433 10436 1
10434 10435 1
10434 10436 1
10434 10437 1
10434 10439 1
10434 10505 1
10434 10508 1
10434 10509 1
10435 10436 1
10435 10504 1
10435 10505 1
10435 10508 1
10435 11047 1
10435 11050 1
10435 11051 1
10435 11122 1
10436 10437 1
10436 10439 1
10436 11050 1
10436 11051 1
10436 11054 1
10437 10438 1
10437 10439 1
10437 10440 1
10438 10439 1
10438 10440 1
10438 10441 1
10438 10443 1
10438 10509 1
10438 10512 1
10438 10513 1
10439 10440 1
10439 10508 1
10439 10509 1
10439 10512 1
10439 11051 1
10439 11054 1
10439 11055 1
10439 11126 1
10440 10441 1
10440 10443 1
10440 11054 1
10440 11055 1
10440 11058 1
10441 10442 1
10441 10443 1
10441 10444 1
10442 10443 1
10442 10444 1
10442 10445 1
10442 10447 1
10442 10513 1
10442 10516 1
10442 10517 1
10443 10444 1
10443 10512 1
10443 10513 1
10443 10516 1
10443 11055 1
10443 11058 1
10443 11059 1
10443 11130 1
10444 10445 1
10444 10447 1
10444 11058 1
10444 11059 1
10444 11062 1
10445 10446 1
10445 10447 1
10445 10448 1
10446 10447 1
10446 10448 1
10446 10449 1
10446 10451 1
10446 10517 1
10446 10519 1
10446 10520 1
10447 10448 1
10447 10516 1
10447 10517 1
10447 10519 1
10447 11059 1
10447 11062 1
10447 11063 1
10447 11134 1
10448 10449 1
10448 10451 1
10448 11062 1
10448 11063 1
10448 11066 1
10449 10450 1
10449 10451 1
10449 10452 1
10450 10451 1
10450 10452 1
10450 10453 1
10450 10455 1
10450 10520 1
10450 10521 1
10450 10522 1
10451 10452 1
10451 10519 1
10451 10520 1
10451 10521 1
10451 11063 1
10451 11066 1
10451 11067 1
10451 11137 1
10452 10453 1
10452 10455 1
10452 11066 1
10452 11067 1
10452 11070 1
10453 10454 1
10453 10455 1
10453 10456 1
10454 10455 1
10454 10456 1
10454 10457 1
10454 10459 1
10454 10522 1
10454 10525 1
10454 10526 1
10455 10456 1
10455 10521 1
10455 10522 1
10455 10525 1
10455 11067 1
10455 11070 1
10455 11071 1
10455 11139 1
10456 10457 1
10456 10459 1
10456 11070 1
10456 11071 1
10456 11074 1
10457 10458 1
10457 10459 1
10457 10460 1
10458 10459 1
10458 10460 1
10458 10461 1
10458 10463 1
10458 10526 1
10458 10529 1
10458 10530 1
10459 10460 1
10459 10525 1
10459 10526 1
10459 10529 1
10459 11071 1
10459 11074 1
10459 11075 1
10459 11143 1
10460 10461 1
10460 10463 1
10460 11074 1
10460 11075 1
10460 11078 1
10461 10462 1
10461 10463 1
10461 10464 1
10462 10463 1
10462 10464 1
10462 10465 1
10462 10467 1
10462 10530 1
10462 10533 1
10462 10534 1
10463 10464 1
10463 10529 1
10463 10530 1
10463 10533 1
10463 11075 1
10463 11078 1
10463 11079 1
10463 11147 1
10464 10465 1
10464 10467 1
10464 11078 1
10464 11079 1
10464 11082 1
10465 10466 1
10465 10467 1
10465 10468 1
10466 10467 1
10466 10468 1
10466 10469 1
10466 10471 1
10466 10534 1
10466 10537 1
10466 10538 1
10467 10468 1
10467 10533 1
10467 10534 1
10467 10537 1
10467 11079 1
10467 11082 1
10467 11083 1
10467 11151 1
10468 10469 1
10468 10471 1
10468 11082 1
10468 11083 1
10468 11086 1
10469 10470 1
10469 10471 1
10469 10472 1
10470 10471 1
10470 10472 1
10470 10473 1
10470 10475 1
10470 10538 1
10470 10541 1
10470 10542 1
10471 10472 1
10471 10537 1
10471 10538 1
10471 10541 1
10471 11083 1
10471 11086 1
10471 11087 1
10471 11155 1
10472 10473 1
10472 10475 1
10472 11086 1
10472 11087 1
10472 11090 1
10473 10474 1
10473 10475 1
10473 10476 1
10474 10475 1
10474 10476 1
10474 10477 1
10474 10479 1
10474 10542 1
10474 10545 1
10474 10546 1
10475 10476 1
10475 10541 1
10475 10542 1
10475 10545 1
10475 11087 1
10475 11090 1
10475 11091 1
10475 11159 1
10476 10477 1
10476 10479 1
10476 11090 1
10476 11091 1
10476 11094 1
10477 10478 1
10477 10479 1
10477 10480 1
10478 10479 1
10478 10480 1
10478 10481 1
10478 10483 1
10478 10546 1
10478 10549 1
10478 10550 1
10479 10480 1
10479 10545 1
10479 10546 1
10479 10549 1
10479 11091 1
10479 11094 1
10479 11095 1
10479 11163 1
10480 10481 1
10480 10483 1
10480 11094 1
10480 11095 1
10480 11098 1
10481 10482 1
10481 10483 1
10481 10484 1
10482 10483 1
10482 10484 1
10482 10550 1
10482 10553 1
10483 10484 1
10483 10549 1
10483 10550 1
10483 10553 1
10483 11095 1
10483 11098 1
10483 11099 1
10483 11167 1
10484 11098 1
10484 11099 1
10485 10486 1
10485 10487 1
10485 10488 1
10486 10487 1
10486 10488 1
10486 10489 1
10486 10491 1
10486 10554 1
10486 10557 1
10486 10558 1
10487 10488 1
10487 10554 1
10487 10557 1
10487 11102 1
10487 11103 1
10487 11171 1
10488 10489 1
10488 10491 1
10488 11031 1
10488 11102 1
10488 11103 1
10488 11106 1
10489 10490 1
10489 10491 1
10489 10492 1
10490 10491 1
10490 10492 1
10490 10493 1
10490 10495 1
10490 10558 1
10490 10561 1
10490 10562 1
10491 10492 1
10491 10557 1
10491 10558 1
10491 10561 1
10491 11103 1
10491 11106 1
10491 11107 1
10491 11175 1
10492 10493 1
10492 10495 1
10492 11035 1
10492 11106 1
10492 11107 1
10492 11110 1
10493 10494 1
10493 10495 1
10493 10496 1
10494 10495 1
10494 10496 1
10494 10497 1
10494 10499 1
10494 10562 1
10494 10565 1
10494 10566 1
10495 10496 1
10495 10561 1
10495 10562 1
10495 10565 1
10495 11107 1
10495 11110 1
10495 11111 1
10495 11179 1
10496 10497 1
10496 10499 1
10496 11039 1
10496 11110 1
10496 11111 1
10496 11114 1
10497 10498 1
10497 10499 1
10497 10500 1
10498 10499 1
10498 10500 1
10498 10501 1
10498 10503 1
10498 10566 1
10498 10569 1
10498 10570 1
10499 10500 1
10499 10565 1
10499 10566 1
10499 10569 1
10499 11111 1
10499 11114 1
10499 11115 1
10499 11183 1
10500 10501 1
10500 10503 1
10500 11043 1
10500 11114 1
10500 11115 1
10500 11118 1
10501 10502 1
10501 10503 1
10501 10504 1
10502 10503 1
10502 10504 1
10502 10505 1
10502 10507 1
10502 10570 1
10502 10573 1
10502 10574 1
10503 10504 1
10503 10569 1
10503 10570 1
10503 10573 1
10503 11115 1
10503 11118 1
10503 11119 1
10503 11187 1
10504 10505 1
10504 10507 1
10504 11047 1
10504 11118 1
10504 11119 1
10504 11122 1
10505 10506 1
10505 10507 1
10505 10508 1
10506 10507 1
10506 10508 1
10506 10509 1
10506 10511 1
10506 10574 1
10506 10576 1
10506 10577 1
10507 10508 1
10507 10573 1
10507 10574 1
10507 10576 1
10507 11119 1
10507 11122 1
10507 11123 1
10507 11191 1
10508 10509 1
10508 10511 1
10508 11051 1
10508 11122 1
10508 11123 1
10508 11126 1
10509 10510 1
10509 10511 1
10509 10512 1
10510 10511 1
10510 10512 1
10510 10513 1
10510 10515 1
10510 10577 1
10511 10512 1
10511 10576 1
10511 10577 1
10511 11123 1
10511 11126 1
10511 11127 1
10511 11194 1
10512 10513 1
10512 10515 1
10512 11055 1
10512 11126 1
10512 11127 1
10512 11130 1
10513 10514 1
10513 10515 1
10513 10516 1
10514 10515 1
10514 10516 1
10514 10517 1
10514 10518 1
10515 10516 1
10515 11127 1
10515 11130 1
10515 11131 1
10516 10517 1
10516 10518 1
10516 11059 1
10516 11130 1
10516 11131 1
10516 11134 1
10517 10518 1
10517 10519 1
10518 10519 1
10518 11131 1
10518 11134 1
10519 10520 1
10519 11063 1
10519 11134 1
10519 11137 1
10520 10521 1
10521 10522 1
10521 10524 1
10521 11067 1
10521 11137 1
10521 11139 1
10522 10523 1
10522 10524 1
10522 10525 1
10523 10524 1
10523 10525 1
10523 10526 1
10523 10528 1
10524 10525 1
10524 11139 1
10524 11140 1
10525 10526 1
10525 10528 1
10525 11071 1
10525 11139 1
10525 11140 1
10525 11143 1
10526 10527 1
10526 10528 1
10526 10529 1
10527 10528 1
10527 10529 1
10527 10530 1
10527 10532 1
10527 10578 1
10528 10529 1
10528 11140 1
10528 11143 1
10528 11144 1
10529 10530 1
10529 10532 1
10529 11075 1
10529 11143 1
10529 11144 1
10529 11147 1
10530 10531 1
10530 10532 1
10530 10533 1
10531 10532 1
10531 10533 1
10531 10534 1
10531 10536 1
10531 10578 1
10531 10579 1
10531 10580 1
10532 10533 1
10532 10578 1
10532 10579 1
10532 11144 1
10532 11147 1
10532 11148 1
10532 11195 1
10533 10534 1
10533 10536 1
10533 11079 1
10533 11147 1
10533 11148 1
10533 11151 1
10534 10535 1
10534 10536 1
10534 10537 1
10535 10536 1
10535 10537 1
10535 10538 1
10535 10540 1
10535 10580 1
10535 10583 1
10535 10584 1
10536 10537 1
10536 10579 1
10536 10580 1
10536 10583 1
10536 11148 1
10536 11151 1
10536 11152 1
10536 11197 1
10537 10538 1
10537 10540 1
10537 11083 1
10537 11151 1
10537 11152 1
10537 11155 1
10538 10539 1
10538 10540 1
10538 10541 1
10539 10540 1
10539 10541 1
10539 10542 1
10539 10544 1
10539 10584 1
10539 10587 1
10539 10588 1
10540 10541 1
10540 10583 1
10540 10584 1
10540 10587 1
10540 11152 1
10540 11155 1
10540 11156 1
10540 11201 1
10541 10542 1
10541 10544 1
10541 11087 1
10541 11155 1
10541 11156 1
10541 11159 1
10542 10543 1
10542 10544 1
10542 10545 1
10543 10544 1
10543 10545 1
10543 10546 1
10543 10548 1
10543 10588 1
10543 10591 1
10543 10592 1
10544 10545 1
10544 10587 1
10544 10588 1
10544 10591 1
10544 11156 1
10544 11159 1
10544 11160 1
10544 11205 1
10545 10546 1
10545 10548 1
10545 11091 1
10545 11159 1
10545 11160 1
10545 11163 1
10546 10547 1
10546 10548 1
10546 10549 1
10547 10548 1
10547 10549 1
10547 10550 1
10547 10552 1
10547 10592 1
10547 10595 1
10547 10596 1
10548 10549 1
10548 10591 1
10548 10592 1
10548 10595 1
10548 11160 1
10548 11163 1
10548 11164 1
10548 11209 1
10549 10550 1
10549 10552 1
10549 11095 1
10549 11163 1
10549 11164 1
10549 11167 1
10550 10551 1
10550 10552 1
10550 10553 1
10551 10552 1
10551 10553 1
10551 10596 1
10551 10599 1
10552 10553 1
10552 10595 1
10552 10596 1
10552 10599 1
10552 11164 1
10552 11167 1
10552 11168 1
10552 11213 1
10553 11099 1
10553 11167 1
10553 11168 1
10554 10555 1
10554 10556 1
10554 10557 1
10555 10556 1
10555 10557 1
10555 10558 1
10555 10560 1
10555 10600 1
10555 10603 1
10555 10604 1
10556 10557 1
10556 10600 1
10556 10603 1
10556 11171 1
10556 11172 1
10556 11217 1
10557 10558 1
10557 10560 1
10557 11103 1
10557 11171 1
10557 11172 1
10557 11175 1
10558 10559 1
10558 10560 1
10558 10561 1
10559 10560 1
10559 10561 1
10559 10562 1
10559 10564 1
10559 10604 1
10559 10607 1
10559 10608 1
10560 10561 1
10560 10603 1
10560 10604 1
10560 10607 1
10560 11172 1
10560 11175 1
10560 11176 1
10560 11221 1
10561 10562 1
10561 10564 1
10561 11107 1
10561 11175 1
10561 11176 1
10561 11179 1
10562 10563 1
10562 10564 1
10562 10565 1
10563 10564 1
10563 10565 1
10563 10566 1
10563 10568 1
10563 10608 1
10563 10611 1
10563 10612 1
10564 10565 1
10564 10607 1
10564 10608 1
10564 10611 1
10564 11176 1
10564 11179 1
10564 11180 1
10564 11225 1
10565 10566 1
10565 10568 1
10565 11111 1
10565 11179 1
10565 11180 1
10565 11183 1
10566 10567 1
10566 10568 1
10566 10569 1
10567 10568 1
10567 10569 1
10567 10570 1
10567 10572 1
10567 10612 1
10567 10615 1
10567 10616 1
10568 10569 1
10568 10611 1
10568 10612 1
10568 10615 1
10568 11180 1
10568 11183 1
10568 11184 1
10568 11229 1
10569 10570 1
10569 10572 1
10569 11115 1
10569 11183 1
10569 11184 1
10569 11187 1
10570 10571 1
10570 10572 1
10570 10573 1
10571 10572 1
10571 10573 1
10571 10574 1
10571 10575 1
10571 10616 1
10572 10573 1
10572 10615 1
10572 10616 1
10572 11184 1
10572 11187 1
10572 11188 1
10572 11233 1
10573 10574 1
10573 10575 1
10573 11119 1
10573 11187 1
10573 11188 1
10573 11191 1
10574 10575 1
10574 10576 1
10575 10576 1
10575 11188 1
10575 11191 1
10576 10577 1
10576 11123 1
10576 11191 1
10576 11194 1
10578 10579 1
10579 10580 1
10579 10582 1
10579 11148 1
10579 11195 1
10579 11197 1
10580 10581 1
10580 10582 1
10580 10583 1
10581 10582 1
10581 10583 1
10581 10584 1
10581 10586 1
10581 10617 1
10581 10618 1
10582 10583 1
10582 10617 1
10582 11197 1
10582 11198 1
10583 10584 1
10583 10586 1
10583 11152 1
10583 11197 1
10583 11198 1
10583 11201 1
10584 10585 1
10584 10586 1
10584 10587 1
10585 10586 1
10585 10587 1
10585 10588 1
10585 10590 1
10585 10618 1
10585 10621 1
10585 10622 1
10586 10587 1
10586 10617 1
10586 10618 1
10586 10621 1
10586 11198 1
10586 11201 1
10586 11202 1
10586 11235 1
10587 10588 1
10587 10590 1
10587 11156 1
10587 11201 1
10587 11202 1
10587 11205 1
10588 10589 1
10588 10590 1
10588 10591 1
10589 10590 1
10589 10591 1
10589 10592 1
10589 10594 1
10589 10622 1
10589 10625 1
10589 10626 1
10590 10591 1
10590 10621 1
10590 10622 1
10590 10625 1
10590 11202 1
10590 11205 1
10590 11206 1
10590 11239 1
10591 10592 1
10591 10594 1
10591 11160 1
10591 11205 1
10591 11206 1
10591 11209 1
10592 10593 1
10592 10594 1
10592 10595 1
10593 10594 1
10593 10595 1
10593 10596 1
10593 10598 1
10593 10626 1
10593 10629 1
10593 10630 1
10594 10595 1
10594 10625 1
10594 10626 1
10594 10629 1
10594 11206 1
10594 11209 1
10594 11210 1
10594 11243 1
10595 10596 1
10595 10598 1
10595 11164 1
10595 11209 1
10595 11210 1
10595 11213 1
10596 10597 1
10596 10598 1
10596 10599 1
10597 10598 1
10597 10599 1
10597 10630 1
10597 10633 1
10598 10599 1
10598 10629 1
10598 10630 1
10598 10633 1
10598 11210 1
10598 11213 1
10598 11214 1
10598 11247 1
10599 11168 1
10599 11213 1
10599 11214 1
10600 10601 1
10600 10602 1
10600 10603 1
10601 10602 1
10601 10603 1
10601 10604 1
10601 10606 1
10601 10634 1
10601 10637 1
10601 10638 1
10602 10603 1
10602 10634 1
10602 10637 1
10602 11217 1
10602 11218 1
10602 11251 1
10603 10604 1
10603 10606 1
10603 11172 1
10603 11217 1
10603 11218 1
10603 11221 1
10604 10605 1
10604 10606 1
10604 10607 1
10605 10606 1
10605 10607 1
10605 10608 1
10605 10610 1
10605 10638 1
10605 10641 1
10605 10642 1
10606 10607 1
10606 10637 1
10606 10638 1
10606 10641 1
10606 11218 1
10606 11221 1
10606 11222 1
10606 11255 1
10607 10608 1
10607 10610 1
10607 11176 1
10607 11221 1
10607 11222 1
10607 11225 1
10608 10609 1
10608 10610 1
10608 10611 1
10609 10610 1
10609 10611 1
10609 10612 1
10609 10614 1
10609 10642 1
10609 10645 1
10609 10646 1
10610 10611 1
10610 10641 1
10610 10642 1
10610 10645 1
10610 11222 1
10610 11225 1
10610 11226 1
10610 11259 1
10611 10612 1
10611 10614 1
10611 11180 1
10611 11225 1
10611 11226 1
10611 11229 1
10612 10613 1
10612 10614 1
10612 10615 1
10613 10614 1
10613 10615 1
10613 10616 1
10613 10646 1
10614 10615 1
10614 10645 1
10614 10646 1
10614 11226 1
10614 11229 1
10614 11230 1
10614 11263 1
10615 10616 1
10615 11184 1
10615 11229 1
10615 11230 1
10615 11233 1
10617 10618 1
10617 10620 1
10617 11198 1
10617 11235 1
10618 10619 1
10618 10620 1
10618 10621 1
10619 10620 1
10619 10621 1
10619 10622 1
10619 10624 1
10619 10647 1
10619 10648 1
10620 10621 1
10620 10647 1
10620 11235 1
10620 11236 1
10621 10622 1
10621 10624 1
10621 11202 1
10621 11235 1
10621 11236 1
10621 11239 1
10622 10623 1
10622 10624 1
10622 10625 1
10623 10624 1
10623 10625 1
10623 10626 1
10623 10628 1
10623 10648 1
10623 10651 1
10623 10652 1
10624 10625 1
10624 10647 1
10624 10648 1
10624 10651 1
10624 11236 1
10624 11239 1
10624 11240 1
10624 11265 1
10625 10626 1
10625 10628 1
10625 11206 1
10625 11239 1
10625 11240 1
10625 11243 1
10626 10627 1
10626 10628 1
10626 10629 1
10627 10628 1
10627 10629 1
10627 10630 1
10627 10632 1
10627 10652 1
10627 10655 1
10627 10656 1
10628 10629 1
10628 10651 1
10628 10652 1
10628 10655 1
10628 11240 1
10628 11243 1
10628 11244 1
10628 11269 1
10629 10630 1
10629 10632 1
10629 11210 1
10629 11243 1
10629 11244 1
10629 11247 1
10630 10631 1
10630 10632 1
10630 10633 1
10631 10632 1
10631 10633 1
10631 10656 1
10631 10659 1
10632 10633 1
10632 10655 1
10632 10656 1
10632 10659 1
10632 11244 1
10632 11247 1
10632 11248 1
10632 11273 1
10633 11214 1
10633 11247 1
10633 11248 1
10634 10635 1
10634 10636 1
10634 10637 1
10635 10636 1
10635 10637 1
10635 10638 1
10635 10640 1
10635 10660 1
10635 10663 1
10635 10664 1
10636 10637 1
10636 10660 1
10636 10663 1
10636 11251 1
10636 11252 1
10636 11277 1
10637 10638 1
10637 10640 1
10637 11218 1
10637 11251 1
10637 11252 1
10637 11255 1
10638 10639 1
10638 10640 1
10638 10641 1
10639 10640 1
10639 10641 1
10639 10642 1
10639 10644 1
10639 10664 1
10639 10667 1
10639 10668 1
10640 10641 1
10640 10663 1
10640 10664 1
10640 10667 1
10640 11252 1
10640 11255 1
10640 11256 1
10640 11281 1
10641 10642 1
10641 10644 1
10641 11222 1
10641 11255 1
10641 11256 1
10641 11259 1
10642 10643 1
10642 10644 1
10642 10645 1
10643 10644 1
10643 10645 1
10643 10646 1
10643 10668 1
10643 10670 1
10644 10645 1
10644 10667 1
10644 10668 1
10644 10670 1
10644 11256 1
10644 11259 1
10644 11260 1
10644 11285 1
10645 10646 1
10645 11226 1
10645 11259 1
10645 11260 1
10645 11263 1
10647 10648 1
10647 10650 1
10647 11236 1
10647 11265 1
10648 10649 1
10648 10650 1
10648 10651 1
10649 10650 1
10649 10651 1
10649 10652 1
10649 10654 1
10649 10672 1
10649 10673 1
10650 10651 1
10650 10672 1
10650 11265 1
10650 11266 1
10651 10652 1
10651 10654 1
10651 11240 1
10651 11265 1
10651 11266 1
10651 11269 1
10652 10653 1
10652 10654 1
10652 10655 1
10653 10654 1
10653 10655 1
10653 10656 1
10653 10658 1
10653 10673 1
10653 10676 1
10653 10677 1
10654 10655 1
10654 10672 1
10654 10673 1
10654 10676 1
10654 11266 1
10654 11269 1
10654 11270 1
10654 11290 1
10655 10656 1
10655 10658 1
10655 11244 1
10655 11269 1
10655 11270 1
10655 11273 1
10656 10657 1
10656 10658 1
10656 10659 1
10657 10658 1
10657 10659 1
10657 10677 1
10657 10680 1
10658 10659 1
10658 10676 1
10658 10677 1
10658 10680 1
10658 11270 1
10658 11273 1
10658 11274 1
10658 11294 1
10659 11248 1
10659 11273 1
10659 11274 1
10660 10661 1
10660 10662 1
10660 10663 1
10661 10662 1
10661 10663 1
10661 10664 1
10661 10666 1
10661 10681 1
10661 10684 1
10661 10685 1
10662 10663 1
10662 10681 1
10662 10684 1
10662 11277 1
10662 11278 1
10662 11298 1
10663 10664 1
10663 10666 1
10663 11252 1
10663 11277 1
10663 11278 1
10663 11281 1
10664 10665 1
10664 10666 1
10664 10667 1
10665 10666 1
10665 10667 1
10665 10668 1
10665 10669 1
10665 10685 1
10665 10688 1
10665 10689 1
10666 10667 1
10666 10684 1
10666 10685 1
10666 10688 1
10666 11278 1
10666 11281 1
10666 11282 1
10666 11302 1
10667 10668 1
10667 10669 1
10667 11256 1
10667 11281 1
10667 11282 1
10667 11285 1
10668 10669 1
10668 10670 1
10669 10670 1
10669 10688 1
10669 10689 1
10669 11282 1
10669 11285 1
10669 11306 1
10670 11260 1
10670 11285 1
10671 10672 1
10671 10673 1
10671 10675 1
10671 10690 1
10672 10673 1
10672 10675 1
10672 11266 1
10672 11288 1
10672 11290 1
10673 10674 1
10673 10675 1
10673 10676 1
10674 10675 1
10674 10676 1
10674 10677 1
10674 10679 1
10674 10690 1
10674 10693 1
10674 10694 1
10675 10676 1
10675 10690 1
10675 10693 1
10675 11288 1
10675 11290 1
10675 11291 1
10675 11307 1
10676 10677 1
10676 10679 1
10676 11270 1
10676 11290 1
10676 11291 1
10676 11294 1
10677 10678 1
10677 10679 1
10677 10680 1
10678 10679 1
10678 10680 1
10678 10694 1
10678 10697 1
10679 10680 1
10679 10693 1
10679 10694 1
10679 10697 1
10679 11291 1
10679 11294 1
10679 11295 1
10679 11311 1
10680 11274 1
10680 11294 1
10680 11295 1
10681 10682 1
10681 10683 1
10681 10684 1
10682 10683 1
10682 10684 1
10682 10685 1
10682 10687 1
10682 10698 1
10682 10701 1
10682 10702 1
10683 10684 1
10683 10698 1
10683 10701 1
10683 11298 1
10683 11299 1
10683 11315 1
10684 10685 1
10684 10687 1
10684 11278 1
10684 11298 1
10684 11299 1
10684 11302 1
10685 10686 1
10685 10687 1
10685 10688 1
10686 10687 1
10686 10688 1
10686 10689 1
10686 10702 1
10686 10705 1
10687 10688 1
10687 10701 1
10687 10702 1
10687 10705 1
10687 11299 1
10687 11302 1
10687 11303 1
10687 11319 1
10688 10689 1
10688 11282 1
10688 11302 1
10688 11303 1
10688 11306 1
10690 10691 1
10690 10692 1
10690 10693 1
10691 10692 1
10691 10693 1
10691 10694 1
10691 10696 1
10691 10706 1
10691 10708 1
10691 10709 1
10692 10693 1
10692 10706 1
10692 10708 1
10692 11307 1
10692 11308 1
10692 11323 1
10693 10694 1
10693 10696 1
10693 11291 1
10693 11307 1
10693 11308 1
10693 11311 1
10694 10695 1
10694 10696 1
10694 10697 1
10695 10696 1
10695 10697 1
10695 10709 1
10695 10712 1
10696 10697 1
10696 10708 1
10696 10709 1
10696 10712 1
10696 11308 1
10696 11311 1
10696 11312 1
10696 11326 1
10697 11295 1
10697 11311 1
10697 11312 1
10698 10699 1
10698 10700 1
10698 10701 1
10699 10700 1
10699 10701 1
10699 10702 1
10699 10704 1
10699 10713 1
10699 10716 1
10699 10717 1
10700 10701 1
10700 10713 1
10700 10716 1
10700 11315 1
10700 11316 1
10700 11330 1
10701 10702 1
10701 10704 1
10701 11299 1
10701 11315 1
10701 11316 1
10701 11319 1
10702 10703 1
10702 10704 1
10702 10705 1
10703 10704 1
10703 10705 1
10703 10717 1
10703 10719 1
10704 10705 1
10704 10716 1
10704 10717 1
10704 10719 1
10704 11316 1
10704 11319 1
10704 11320 1
10704 11334 1
10705 11303 1
10705 11319 1
10705 11320 1
10706 10707 1
10706 10708 1
10707 10708 1
10707 10709 1
10707 10711 1
10707 10721 1
10707 10722 1
10708 10709 1
10708 10711 1
10708 11308 1
10708 11323 1
10708 11324 1
10708 11326 1
10709 10710 1
10709 10711 1
10709 10712 1
10710 10711 1
10710 10712 1
10710 10722 1
10710 10725 1
10711 10712 1
10711 10721 1
10711 10722 1
10711 10725 1
10711 11324 1
10711 11326 1
10711 11327 1
10711 11339 1
10712 11312 1
10712 11326 1
10712 11327 1
10713 10714 1
10713 10715 1
10713 10716 1
10714 10715 1
10714 10716 1
10714 10717 1
10714 10718 1
10714 10726 1
10714 10729 1
10714 10730 1
10715 10716 1
10715 10726 1
10715 10729 1
10715 11330 1
10715 11331 1
10715 11343 1
10716 10717 1
10716 10718 1
10716 11316 1
10716 11330 1
10716 11331 1
10716 11334 1
10717 10718 1
10717 10719 1
10718 10719 1
10718 10729 1
10718 10730 1
10718 11331 1
10718 11334 1
10718 11347 1
10719 11320 1
10719 11334 1
10720 10721 1
10720 10722 1
10720 10724 1
10720 10733 1
10720 10734 1
10721 10722 1
10721 10724 1
10721 11324 1
10721 11337 1
10721 11339 1
10722 10723 1
10722 10724 1
10722 10725 1
10723 10724 1
10723 10725 1
10723 10734 1
10723 10737 1
10724 10725 1
10724 10733 1
10724 10734 1
10724 10737 1
10724 11337 1
10724 11339 1
10724 11340 1
10724 11351 1
10725 11327 1
10725 11339 1
10725 11340 1
10726 10727 1
10726 10728 1
10726 10729 1
10727 10728 1
10727 10729 1
10727 10730 1
10727 10731 1
10727 10738 1
10727 10741 1
10727 10742 1
10728 10729 1
10728 10738 1
10728 10741 1
10728 11343 1
10728 11344 1
10728 11355 1
10729 10730 1
10729 10731 1
10729 11331 1
10729 11343 1
10729 11344 1
10729 11347 1
10730 10731 1
10731 10741 1
10731 10742 1
10731 10745 1
10731 11344 1
10731 11347 1
10731 11359 1
10732 10733 1
10732 10734 1
10732 10736 1
10732 10748 1
10732 10749 1
10733 10734 1
10733 10736 1
10733 11337 1
10733 11349 1
10733 11351 1
10734 10735 1
10734 10736 1
10734 10737 1
10735 10736 1
10735 10737 1
10735 10749 1
10735 10752 1
10736 10737 1
10736 10748 1
10736 10749 1
10736 10752 1
10736 11349 1
10736 11351 1
10736 11352 1
10736 11366 1
10737 11340 1
10737 11351 1
10737 11352 1
10738 10739 1
10738 10740 1
10738 10741 1
10739 10740 1
10739 10741 1
10739 10742 1
10739 10744 1
10739 10753 1
10739 10756 1
10739 10757 1
10740 10741 1
10740 10753 1
10740 10756 1
10740 11355 1
10740 11356 1
10740 11370 1
10741 10742 1
10741 10744 1
10741 11344 1
10741 11355 1
10741 11356 1
10741 11359 1
10742 10743 1
10742 10744 1
10742 10745 1
10743 10744 1
10743 10745 1
10743 10757 1
10743 10760 1
10744 10745 1
10744 10756 1
10744 10757 1
10744 10760 1
10744 11356 1
10744 11359 1
10744 11360 1
10744 11374 1
10745 11359 1
10745 11360 1
10746 10747 1
10746 10748 1
10746 10749 1
10746 10751 1
10746 10761 1
10746 10764 1
10746 10765 1
10747 10748 1
10747 10761 1
10747 10764 1
10747 11363 1
10747 11378 1
10748 10749 1
10748 10751 1
10748 11349 1
10748 11363 1
10748 11366 1
10749 10750 1
10749 10751 1
10749 10752 1
10750 10751 1
10750 10752 1
10750 10765 1
10750 10768 1
10751 10752 1
10751 10764 1
10751 10765 1
10751 10768 1
10751 11363 1
10751 11366 1
10751 11367 1
10751 11382 1
10752 11352 1
10752 11366 1
10752 11367 1
10753 10754 1
10753 10755 1
10753 10756 1
10754 10755 1
10754 10756 1
10754 10757 1
10754 10759 1
10754 10769 1
10754 10772 1
10754 10773 1
10755 10756 1
10755 10769 1
10755 10772 1
10755 11370 1
10755 11371 1
10755 11386 1
10756 10757 1
10756 10759 1
10756 11356 1
10756 11370 1
10756 11371 1
10756 11374 1
10757 10758 1
10757 10759 1
10757 10760 1
10758 10759 1
10758 10760 1
10758 10773 1
10758 10776 1
10758 10777 1
10759 10760 1
10759 10772 1
10759 10773 1
10759 10776 1
10759 11371 1
10759 11374 1
10759 11375 1
10759 11390 1
10760 11360 1
10760 11374 1
10760 11375 1
10761 10762 1
10761 10763 1
10761 10764 1
10762 10763 1
10762 10764 1
10762 10765 1
10762 10767 1
10762 10781 1
10762 10784 1
10762 10785 1
10763 10764 1
10763 10780 1
10763 10781 1
10763 10784 1
10763 11378 1
10763 11379 1
10763 11398 1
10764 10765 1
10764 10767 1
10764 11363 1
10764 11378 1
10764 11379 1
10764 11382 1
10765 10766 1
10765 10767 1
10765 10768 1
10766 10767 1
10766 10768 1
10766 10785 1
10766 10788 1
10767 10768 1
10767 10784 1
10767 10785 1
10767 10788 1
10767 11379 1
10767 11382 1
10767 11383 1
10767 11402 1
10768 11367 1
10768 11382 1
10768 11383 1
10769 10770 1
10769 10771 1
10769 10772 1
10770 10771 1
10770 10772 1
10770 10773 1
10770 10775 1
10770 10789 1
10770 10792 1
10770 10793 1
10771 10772 1
10771 10789 1
10771 10792 1
10771 11386 1
10771 11387 1
10771 11406 1
10772 10773 1
10772 10775 1
10772 11371 1
10772 11386 1
10772 11387 1
10772 11390 1
10773 10774 1
10773 10775 1
10773 10776 1
10774 10775 1
10774 10776 1
10774 10777 1
10774 10778 1
10774 10793 1
10774 10796 1
10774 10797 1
10775 10776 1
10775 10792 1
10775 10793 1
10775 10796 1
10775 11387 1
10775 11390 1
10775 11391 1
10775 11410 1
10776 10777 1
10776 10778 1
10776 11375 1
10776 11390 1
10776 11391 1
10776 11394 1
10777 10778 1
10778 10796 1
10778 10797 1
10778 10800 1
10778 11391 1
10778 11394 1
10778 11414 1
10779 10780 1
10779 10781 1
10779 10783 1
10779 10803 1
10779 10806 1
10779 10807 1
10780 10781 1
10780 10783 1
10780 11396 1
10780 11398 1
10781 10782 1
10781 10783 1
10781 10784 1
10782 10783 1
10782 10784 1
10782 10785 1
10782 10787 1
10782 10807 1
10782 10810 1
10782 10811 1
10783 10784 1
10783 10806 1
10783 10807 1
10783 10810 1
10783 11396 1
10783 11398 1
10783 11399 1
10783 11424 1
10784 10785 1
10784 10787 1
10784 11379 1
10784 11398 1
10784 11399 1
10784 11402 1
10785 10786 1
10785 10787 1
10785 10788 1
10786 10787 1
10786 10788 1
10786 10811 1
10786 10814 1
10787 10788 1
10787 10810 1
10787 10811 1
10787 10814 1
10787 11399 1
10787 11402 1
10787 11403 1
10787 11428 1
10788 11383 1
10788 11402 1
10788 11403 1
10789 10790 1
10789 10791 1
10789 10792 1
10790 10791 1
10790 10792 1
10790 10793 1
10790 10795 1
10790 10815 1
10790 10818 1
10790 10819 1
10791 10792 1
10791 10815 1
10791 10818 1
10791 11406 1
10791 11407 1
10791 11432 1
10792 10793 1
10792 10795 1
10792 11387 1
10792 11406 1
10792 11407 1
10792 11410 1
10793 10794 1
10793 10795 1
10793 10796 1
10794 10795 1
10794 10796 1
10794 10797 1
10794 10799 1
10794 10819 1
10794 10822 1
10794 10823 1
10795 10796 1
10795 10818 1
10795 10819 1
10795 10822 1
10795 11407 1
10795 11410 1
10795 11411 1
10795 11436 1
10796 10797 1
10796 10799 1
10796 11391 1
10796 11410 1
10796 11411 1
10796 11414 1
10797 10798 1
10797 10799 1
10797 10800 1
10798 10799 1
10798 10800 1
10798 10801 1
10798 10823 1
10798 10826 1
10798 10827 1
10799 10800 1
10799 10822 1
10799 10823 1
10799 10826 1
10799 11411 1
10799 11414 1
10799 11415 1
10799 11440 1
10800 10801 1
10800 11414 1
10800 11415 1
10801 10826 1
10801 10827 1
10801 10830 1
10801 11415 1
10801 11444 1
10802 10803 1
10802 10805 1
10802 10835 1
10802 10836 1
10803 10804 1
10803 10805 1
10803 10806 1
10804 10805 1
10804 10806 1
10804 10807 1
10804 10809 1
10804 10836 1
10804 10839 1
10804 10840 1
10805 10806 1
10805 10835 1
10805 10836 1
10805 10839 1
10805 11419 1
10805 11420 1
10805 11421 1
10805 11453 1
10806 10807 1
10806 10809 1
10806 11396 1
10806 11420 1
10806 11421 1
10806 11424 1
10807 10808 1
10807 10809 1
10807 10810 1
10808 10809 1
10808 10810 1
10808 10811 1
10808 10813 1
10808 10840 1
10808 10843 1
10808 10844 1
10809 10810 1
10809 10839 1
10809 10840 1
10809 10843 1
10809 11421 1
10809 11424 1
10809 11425 1
10809 11457 1
10810 10811 1
10810 10813 1
10810 11399 1
10810 11424 1
10810 11425 1
10810 11428 1
10811 10812 1
10811 10813 1
10811 10814 1
10812 10813 1
10812 10814 1
10812 10844 1
10812 10847 1
10813 10814 1
10813 10843 1
10813 10844 1
10813 10847 1
10813 11425 1
10813 11428 1
10813 11429 1
10813 11461 1
10814 11403 1
10814 11428 1
10814 11429 1
10815 10816 1
10815 10817 1
10815 10818 1
10816 10817 1
10816 10818 1
10816 10819 1
10816 10821 1
10816 10848 1
10816 10851 1
10816 10852 1
10817 10818 1
10817 10848 1
10817 10851 1
10817 11432 1
10817 11433 1
10817 11465 1
10818 10819 1
10818 10821 1
10818 11407 1
10818 11432 1
10818 11433 1
10818 11436 1
10819 10820 1
10819 10821 1
10819 10822 1
10820 10821 1
10820 10822 1
10820 10823 1
10820 10825 1
10820 10852 1
10820 10855 1
10820 10856 1
10821 10822 1
10821 10851 1
10821 10852 1
10821 10855 1
10821 11433 1
10821 11436 1
10821 11437 1
10821 11469 1
10822 10823 1
10822 10825 1
10822 11411 1
10822 11436 1
10822 11437 1
10822 11440 1
10823 10824 1
10823 10825 1
10823 10826 1
10824 10825 1
10824 10826 1
10824 10827 1
10824 10829 1
10824 10856 1
10824 10859 1
10824 10860 1
10825 10826 1
10825 10855 1
10825 10856 1
10825 10859 1
10825 11437 1
10825 11440 1
10825 11441 1
10825 11473 1
10826 10827 1
10826 10829 1
10826 11415 1
10826 11440 1
10826 11441 1
10826 11444 1
10827 10828 1
10827 10829 1
10827 10830 1
10828 10829 1
10828 10830 1
10828 10831 1
10828 10860 1
10828 10863 1
10828 10864 1
10829 10830 1
10829 10859 1
10829 10860 1
10829 10863 1
10829 11441 1
10829 11444 1
10829 11445 1
10829 11477 1
10830 10831 1
10830 11444 1
10830 11445 1
10831 10863 1
10831 10864 1
10831 10867 1
10831 11445 1
10831 11481 1
10832 10834 1
10832 10872 1
10832 10875 1
10832 10876 1
10833 10834 1
10833 10835 1
10833 10836 1
10833 10838 1
10833 10876 1
10833 10879 1
10833 10880 1
10834 10835 1
10834 10875 1
10834 10876 1
10834 10879 1
10834 11449 1
10834 11450 1
10834 11493 1
10835 10836 1
10835 10838 1
10835 11419 1
10835 11450 1
10835 11453 1
10836 10837 1
10836 10838 1
10836 10839 1
10837 10838 1
10837 10839 1
10837 10840 1
10837 10842 1
10837 10880 1
10837 10883 1
10837 10884 1
10838 10839 1
10838 10879 1
10838 10880 1
10838 10883 1
10838 11450 1
10838 11453 1
10838 11454 1
10838 11497 1
10839 10840 1
10839 10842 1
10839 11421 1
10839 11453 1
10839 11454 1
10839 11457 1
10840 10841 1
10840 10842 1
10840 10843 1
10841 10842 1
10841 10843 1
10841 10844 1
10841 10846 1
10841 10884 1
10841 10887 1
10841 10888 1
10842 10843 1
10842 10883 1
10842 10884 1
10842 10887 1
10842 11454 1
10842 11457 1
10842 11458 1
10842 11501 1
10843 10844 1
10843 10846 1
10843 11425 1
10843 11457 1
10843 11458 1
10843 11461 1
10844 10845 1
10844 10846 1
10844 10847 1
10845 10846 1
10845 10847 1
10845 10888 1
10845 10891 1
10846 10847 1
10846 10887 1
10846 10888 1
10846 10891 1
10846 11458 1
10846 11461 1
10846 11462 1
10846 11505 1
10847 11429 1
10847 11461 1
10847 11462 1
10848 10849 1
10848 10850 1
10848 10851 1
10849 10850 1
10849 10851 1
10849 10852 1
10849 10854 1
10849 10892 1
10849 10895 1
10849 10896 1
10850 10851 1
10850 10892 1
10850 10895 1
10850 11465 1
10850 11466 1
10850 11509 1
10851 10852 1
10851 10854 1
10851 11433 1
10851 11465 1
10851 11466 1
10851 11469 1
10852 10853 1
10852 10854 1
10852 10855 1
10853 10854 1
10853 10855 1
10853 10856 1
10853 10858 1
10853 10896 1
10853 10899 1
10853 10900 1
10854 10855 1
10854 10895 1
10854 10896 1
10854 10899 1
10854 11466 1
10854 11469 1
10854 11470 1
10854 11513 1
10855 10856 1
10855 10858 1
10855 11437 1
10855 11469 1
10855 11470 1
10855 11473 1
10856 10857 1
10856 10858 1
10856 10859 1
10857 10858 1
10857 10859 1
10857 10860 1
10857 10862 1
10857 10900 1
10857 10903 1
10857 10904 1
10858 10859 1
10858 10899 1
10858 10900 1
10858 10903 1
10858 11470 1
10858 11473 1
10858 11474 1
10858 11517 1
10859 10860 1
10859 10862 1
10859 11441 1
10859 11473 1
10859 11474 1
10859 11477 1
10860 10861 1
10860 10862 1
10860 10863 1
10861 10862 1
10861 10863 1
10861 10864 1
10861 10866 1
10861 10904 1
10861 10907 1
10861 10908 1
10862 10863 1
10862 10903 1
10862 10904 1
10862 10907 1
10862 11474 1
10862 11477 1
10862 11478 1
10862 11521 1
10863 10864 1
10863 10866 1
10863 11445 1
10863 11477 1
10863 11478 1
10863 11481 1
10864 10865 1
10864 10866 1
10864 10867 1
10865 10866 1
10865 10867 1
10865 10869 1
10865 10908 1
10865 10911 1
10865 10912 1
10866 10867 1
10866 10907 1
10866 10908 1
10866 10911 1
10866 11478 1
10866 11481 1
10866 11482 1
10866 11525 1
10867 10869 1
10867 11481 1
10867 11482 1
10868 10869 1
10868 10912 1
10868 10915 1
10868 10916 1
10869 10911 1
10869 10912 1
10869 10915 1
10869 11482 1
10869 11485 1
10869 11529 1
10870 10871 1
10870 10872 1
10870 10874 1
10870 10934 1
10870 10937 1
10870 10938 1
10871 10933 1
10871 10934 1
10871 10937 1
10871 11487 1
10871 11551 1
10872 10873 1
10872 10874 1
10872 10875 1
10873 10874 1
10873 10875 1
10873 10876 1
10873 10878 1
10873 10938 1
10873 10941 1
10873 10942 1
10874 10875 1
10874 10937 1
10874 10938 1
10874 10941 1
10874 11487 1
10874 11489 1
10874 11490 1
10874 11555 1
10875 10876 1
10875 10878 1
10875 11449 1
10875 11489 1
10875 11490 1
10875 11493 1
10876 10877 1
10876 10878 1
10876 10879 1
10877 10878 1
10877 10879 1
10877 10880 1
10877 10882 1
10877 10942 1
10877 10945 1
10877 10946 1
10878 10879 1
10878 10941 1
10878 10942 1
10878 10945 1
10878 11490 1
10878 11493 1
10878 11494 1
10878 11559 1
10879 10880 1
10879 10882 1
10879 11450 1
10879 11493 1
10879 11494 1
10879 11497 1
10880 10881 1
10880 10882 1
10880 10883 1
10881 10882 1
10881 10883 1
10881 10884 1
10881 10886 1
10881 10946 1
10881 10949 1
10881 10950 1
10882 10883 1
10882 10945 1
10882 10946 1
10882 10949 1
10882 11494 1
10882 11497 1
10882 11498 1
10882 11563 1
10883 10884 1
10883 10886 1
10883 11454 1
10883 11497 1
10883 11498 1
10883 11501 1
10884 10885 1
10884 10886 1
10884 10887 1
10885 10886 1
10885 10887 1
10885 10888 1
10885 10890 1
10885 10950 1
10885 10953 1
10885 10954 1
10886 10887 1
10886 10949 1
10886 10950 1
10886 10953 1
10886 11498 1
10886 11501 1
10886 11502 1
10886 11567 1
10887 10888 1
10887 10890 1
10887 11458 1
10887 11501 1
10887 11502 1
10887 11505 1
10888 10889 1
10888 10890 1
10888 10891 1
10889 10890 1
10889 10891 1
10889 10954 1
10889 10957 1
10890 10891 1
10890 10953 1
10890 10954 1
10890 10957 1
10890 11502 1
10890 11505 1
10890 11506 1
10890 11571 1
10891 11462 1
10891 11505 1
10891 11506 1
10892 10893 1
10892 10894 1
10892 10895 1
10893 10894 1
10893 10895 1
10893 10896 1
10893 10898 1
10893 10958 1
10893 10961 1
10893 10962 1
10894 10895 1
10894 10958 1
10894 10961 1
10894 11509 1
10894 11510 1
10894 11575 1
10895 10896 1
10895 10898 1
10895 11466 1
10895 11509 1
10895 11510 1
10895 11513 1
10896 10897 1
10896 10898 1
10896 10899 1
10897 10898 1
10897 10899 1
10897 10900 1
10897 10902 1
10897 10962 1
10897 10965 1
10897 10966 1
10898 10899 1
10898 10961 1
10898 10962 1
10898 10965 1
10898 11510 1
10898 11513 1
10898 11514 1
10898 11579 1
10899 10900 1
10899 10902 1
10899 11470 1
10899 11513 1
10899 11514 1
10899 11517 1
10900 10901 1
10900 10902 1
10900 10903 1
10901 10902 1
10901 10903 1
10901 10904 1
10901 10906 1
10901 10966 1
10901 10969 1
10901 10970 1
10902 10903 1
10902 10965 1
10902 10966 1
10902 10969 1
10902 11514 1
10902 11517 1
10902 11518 1
10902 11583 1
10903 10904 1
10903 10906 1
10903 11474 1
10903 11517 1
10903 11518 1
10903 11521 1
10904 10905 1
10904 10906 1
10904 10907 1
10905 10906 1
10905 10907 1
10905 10908 1
10905 10910 1
10905 10970 1
10905 10973 1
10905 10974 1
10906 10907 1
10906 10969 1
10906 10970 1
10906 10973 1
10906 11518 1
10906 11521 1
10906 11522 1
10906 11587 1
10907 10908 1
10907 10910 1
10907 11478 1
10907 11521 1
10907 11522 1
10907 11525 1
10908 10909 1
10908 10910 1
10908 10911 1
10909 10910 1
10909 10911 1
10909 10912 1
10909 10914 1
10909 10974 1
10909 10977 1
10909 10978 1
10910 10911 1
10910 10973 1
10910 10974 1
10910 10977 1
10910 11522 1
10910 11525 1
10910 11526 1
10910 11591 1
10911 10912 1
10911 10914 1
10911 11482 1
10911 11525 1
10911 11526 1
10911 11529 1
10912 10913 1
10912 10914 1
10912 10915 1
10913 10914 1
10913 10915 1
10913 10916 1
10913 10918 1
10913 10978 1
10913 10981 1
10913 10982 1
10914 10915 1
10914 10977 1
10914 10978 1
10914 10981 1
10914 11526 1
10914 11529 1
10914 11530 1
10914 11595 1
10915 10916 1
10915 10918 1
10915 11485 1
10915 11529 1
10915 11530 1
10915 11533 1
10916 10917 1
10916 10918 1
10916 10919 1
10917 10918 1
10917 10919 1
10917 10920 1
10917 10922 1
10917 10982 1
10917 10985 1
10917 10986 1
10918 10919 1
10918 10981 1
10918 10982 1
10918 10985 1
10918 11530 1
10918 11533 1
10918 11534 1
10918 11599 1
10919 10920 1
10919 10922 1
10919 11533 1
10919 11534 1
10919 11537 1
10920 10921 1
10920 10922 1
10921 10922 1
10921 10924 1
10921 10986 1
10921 10989 1
10921 10990 1
10922 10985 1
10922 10986 1
10922 10989 1
10922 11534 1
10922 11537 1
10922 11538 1
10922 11603 1
10923 10924 1
10923 10926 1
10923 10990 1
10923 10993 1
10923 10994 1
10924 10989 1
10924 10990 1
10924 10993 1
10924 11538 1
10924 11540 1
10924 11607 1
10925 10926 1
10925 10928 1
10925 10994 1
10925 10997 1
10925 10998 1
10926 10993 1
10926 10994 1
10926 10997 1
10926 11540 1
10926 11542 1
10926 11611 1
10927 10928 1
10927 10929 1
10927 10930 1
10927 10932 1
10927 10998 1
10927 11001 1
10927 11002 1
10928 10929 1
10928 10997 1
10928 10998 1
10928 11001 1
10928 11542 1
10928 11544 1
10928 11615 1
10929 10930 1
10929 10932 1
10929 11544 1
10929 11547 1
10930 10931 1
10930 10932 1
10930 10933 1
10931 10932 1
10931 10933 1
10931 10934 1
10931 10936 1
10931 11002 1
10931 11005 1
10931 11006 1
10932 10933 1
10932 11001 1
10932 11002 1
10932 11005 1
10932 11544 1
10932 11547 1
10932 11548 1
10932 11619 1
10933 10934 1
10933 10936 1
10933 11547 1
10933 11548 1
10933 11551 1
10934 10935 1
10934 10936 1
10934 10937 1
10935 10936 1
10935 10937 1
10935 10938 1
10935 10940 1
10935 11006 1
10935 11009 1
10935 11010 1
10936 10937 1
10936 11005 1
10936 11006 1
10936 11009 1
10936 11548 1
10936 11551 1
10936 11552 1
10936 11623 1
10937 10938 1
10937 10940 1
10937 11487 1
10937 11551 1
10937 11552 1
10937 11555 1
10938 10939 1
10938 10940 1
10938 10941 1
10939 10940 1
10939 10941 1
10939 10942 1
10939 10944 1
10939 11010 1
10939 11013 1
10939 11014 1
10940 10941 1
10940 11009 1
10940 11010 1
10940 11013 1
10940 11552 1
10940 11555 1
10940 11556 1
10940 11627 1
10941 10942 1
10941 10944 1
10941 11490 1
10941 11555 1
10941 11556 1
10941 11559 1
10942 10943 1
10942 10944 1
10942 10945 1
10943 10944 1
10943 10945 1
10943 10946 1
10943 10948 1
10943 11014 1
10943 11017 1
10943 11018 1
10944 10945 1
10944 11013 1
10944 11014 1
10944 11017 1
10944 11556 1
10944 11559 1
10944 11560 1
10944 11631 1
10945 10946 1
10945 10948 1
10945 11494 1
10945 11559 1
10945 11560 1
10945 11563 1
10946 10947 1
10946 10948 1
10946 10949 1
10947 10948 1
10947 10949 1
10947 10950 1
10947 10952 1
10947 11018 1
10947 11021 1
10947 11022 1
10948 10949 1
10948 11017 1
10948 11018 1
10948 11021 1
10948 11560 1
10948 11563 1
10948 11564 1
10948 11635 1
10949 10950 1
10949 10952 1
10949 11498 1
10949 11563 1
10949 11564 1
10949 11567 1
10950 10951 1
10950 10952 1
10950 10953 1
10951 10952 1
10951 10953 1
10951 10954 1
10951 10956 1
10951 11022 1
10951 11025 1
10951 11026 1
10952 10953 1
10952 11021 1
10952 11022 1
10952 11025 1
10952 11564 1
10952 11567 1
10952 11568 1
10952 11639 1
10953 10954 1
10953 10956 1
10953 11502 1
10953 11567 1
10953 11568 1
10953 11571 1
10954 10955 1
10954 10956 1
10954 10957 1
10955 10956 1
10955 10957 1
10955 11026 1
10955 11029 1
10956 10957 1
10956 11025 1
10956 11026 1
10956 11029 1
10956 11568 1
10956 11571 1
10956 11572 1
10956 11643 1
10957 11506 1
10957 11571 1
10957 11572 1
10958 10959 1
10958 10960 1
10958 10961 1
10959 10960 1
10959 10961 1
10959 10962 1
10959 10964 1
10960 10961 1
10960 11575 1
10960 11576 1
10961 10962 1
10961 10964 1
10961 11510 1
10961 11575 1
10961 11576 1
10961 11579 1
10962 10963 1
10962 10964 1
10962 10965 1
10963 10964 1
10963 10965 1
10963 10966 1
10963 10968 1
10964 10965 1
10964 11576 1
10964 11579 1
10964 11580 1
10965 10966 1
10965 10968 1
10965 11514 1
10965 11579 1
10965 11580 1
10965 11583 1
10966 10967 1
10966 10968 1
10966 10969 1
10967 10968 1
10967 10969 1
10967 10970 1
10967 10972 1
10968 10969 1
10968 11580 1
10968 11583 1
10968 11584 1
10969 10970 1
10969 10972 1
10969 11518 1
10969 11583 1
10969 11584 1
10969 11587 1
10970 10971 1
10970 10972 1
10970 10973 1
10971 10972 1
10971 10973 1
10971 10974 1
10971 10976 1
10972 10973 1
10972 11584 1
10972 11587 1
10972 11588 1
10973 10974 1
10973 10976 1
10973 11522 1
10973 11587 1
10973 11588 1
10973 11591 1
10974 10975 1
10974 10976 1
10974 10977 1
10975 10976 1
10975 10977 1
10975 10978 1
10975 10980 1
10976 10977 1
10976 11588 1
10976 11591 1
10976 11592 1
10977 10978 1
10977 10980 1
10977 11526 1
10977 11591 1
10977 11592 1
10977 11595 1
10978 10979 1
10978 10980 1
10978 10981 1
10979 10980 1
10979 10981 1
10979 10982 1
10979 10984 1
10980 10981 1
10980 11592 1
10980 11595 1
10980 11596 1
10981 10982 1
10981 10984 1
10981 11530 1
10981 11595 1
10981 11596 1
10981 11599 1
10982 10983 1
10982 10984 1
10982 10985 1
10983 10984 1
10983 10985 1
10983 10986 1
10983 10988 1
10984 10985 1
10984 11596 1
10984 11599 1
10984 11600 1
10985 10986 1
10985 10988 1
10985 11534 1
10985 11599 1
10985 11600 1
10985 11603 1
10986 10987 1
10986 10988 1
10986 10989 1
10987 10988 1
10987 10989 1
10987 10990 1
10987 10992 1
10988 10989 1
10988 11600 1
10988 11603 1
10988 11604 1
10989 10990 1
10989 10992 1
10989 11538 1
10989 11603 1
10989 11604 1
10989 11607 1
10990 10991 1
10990 10992 1
10990 10993 1
10991 10992 1
10991 10993 1
10991 10994 1
10991 10996 1
10992 10993 1
10992 11604 1
10992 11607 1
10992 11608 1
10993 10994 1
10993 10996 1
10993 11540 1
10993 11607 1
10993 11608 1
10993 11611 1
10994 10995 1
10994 10996 1
10994 10997 1
10995 10996 1
10995 10997 1
10995 10998 1
10995 11000 1
10996 10997 1
10996 11608 1
10996 11611 1
10996 11612 1
10997 10998 1
10997 11000 1
10997 11542 1
10997 11611 1
10997 11612 1
10997 11615 1
10998 10999 1
10998 11000 1
10998 11001 1
10999 11000 1
10999 11001 1
10999 11002 1
10999 11004 1
11000 11001 1
11000 11612 1
11000 11615 1
11000 11616 1
11001 11002 1
11001 11004 1
11001 11544 1
11001 11615 1
11001 11616 1
11001 11619 1
11002 11003 1
11002 11004 1
11002 11005 1
11003 11004 1
11003 11005 1
11003 11006 1
11003 11008 1
11004 11005 1
11004 11616 1
11004 11619 1
11004 11620 1
11005 11006 1
11005 11008 1
11005 11548 1
11005 11619 1
11005 11620 1
11005 11623 1
11006 11007 1
11006 11008 1
11006 11009 1
11007 11008 1
11007 11009 1
11007 11010 1
11007 11012 1
11008 11009 1
11008 11620 1
11008 11623 1
11008 11624 1
11009 11010 1
11009 11012 1
11009 11552 1
11009 11623 1
11009 11624 1
11009 11627 1
11010 11011 1
11010 11012 1
11010 11013 1
11011 11012 1
11011 11013 1
11011 11014 1
11011 11016 1
11012 11013 1
11012 11624 1
11012 11627 1
11012 11628 1
11013 11014 1
11013 11016 1
11013 11556 1
11013 11627 1
11013 11628 1
11013 11631 1
11014 11015 1
11014 11016 1
11014 11017 1
11015 11016 1
11015 11017 1
11015 11018 1
11015 11020 1
11016 11017 1
11016 11628 1
11016 11631 1
11016 11632 1
11017 11018 1
11017 11020 1
11017 11560 1
11017 11631 1
11017 11632 1
11017 11635 1
11018 11019 1
11018 11020 1
11018 11021 1
11019 11020 1
11019 11021 1
11019 11022 1
11019 11024 1
11020 11021 1
11020 11632 1
11020 11635 1
11020 11636 1
11021 11022 1
11021 11024 1
11021 11564 1
11021 11635 1
11021 11636 1
11021 11639 1
11022 11023 1
11022 11024 1
11022 11025 1
11023 11024 1
11023 11025 1
11023 11026 1
11023 11028 1
11024 11025 1
11024 11636 1
11024 11639 1
11024 11640 1
11025 11026 1
11025 11028 1
11025 11568 1
11025 11639 1
11025 11640 1
11025 11643 1
11026 11027 1
11026 11028 1
11026 11029 1
11027 11028 1
11027 11029 1
11028 11029 1
11028 11640 1
11028 11643 1
11028 11644 1
11029 11572 1
11029 11643 1
11029 11644 1
11030 11031 1
11030 11032 1
11030 11033 1
11031 11032 1
11031 11033 1
11031 11034 1
11031 11036 1
11031 11102 1
11031 11105 1
11031 11106 1
11032 11033 1
11032 11102 1
11032 11105 1
11032 11647 1
11032 11648 1
11032 11719 1
11033 11034 1
11033 11036 1
11033 11647 1
11033 11648 1
11033 11651 1
11034 11035 1
11034 11036 1
11034 11037 1
11035 11036 1
11035 11037 1
11035 11038 1
11035 11040 1
11035 11106 1
11035 11109 1
11035 11110 1
11036 11037 1
11036 11105 1
11036 11106 1
11036 11109 1
11036 11648 1
11036 11651 1
11036 11652 1
11036 11723 1
11037 11038 1
11037 11040 1
11037 11651 1
11037 11652 1
11037 11655 1
11038 11039 1
11038 11040 1
11038 11041 1
11039 11040 1
11039 11041 1
11039 11042 1
11039 11044 1
11039 11110 1
11039 11113 1
11039 11114 1
11040 11041 1
11040 11109 1
11040 11110 1
11040 11113 1
11040 11652 1
11040 11655 1
11040 11656 1
11040 11727 1
11041 11042 1
11041 11044 1
11041 11655 1
11041 11656 1
11041 11659 1
11042 11043 1
11042 11044 1
11042 11045 1
11043 11044 1
11043 11045 1
11043 11046 1
11043 11048 1
11043 11114 1
11043 11117 1
11043 11118 1
11044 11045 1
11044 11113 1
11044 11114 1
11044 11117 1
11044 11656 1
11044 11659 1
11044 11660 1
11044 11731 1
11045 11046 1
11045 11048 1
11045 11659 1
11045 11660 1
11045 11663 1
11046 11047 1
11046 11048 1
11046 11049 1
11047 11048 1
11047 11049 1
11047 11050 1
11047 11052 1
11047 11118 1
11047 11121 1
11047 11122 1
11048 11049 1
11048 11117 1
11048 11118 1
11048 11121 1
11048 11660 1
11048 11663 1
11048 11664 1
11048 11735 1
11049 11050 1
11049 11052 1
11049 11663 1
11049 11664 1
11049 11667 1
11050 11051 1
11050 11052 1
11050 11053 1
11051 11052 1
11051 11053 1
11051 11054 1
11051 11056 1
11051 11122 1
11051 11125 1
11051 11126 1
11052 11053 1
11052 11121 1
11052 11122 1
11052 11125 1
11052 11664 1
11052 11667 1
11052 11668 1
11052 11739 1
11053 11054 1
11053 11056 1
11053 11667 1
11053 11668 1
11053 11671 1
11054 11055 1
11054 11056 1
11054 11057 1
11055 11056 1
11055 11057 1
11055 11058 1
11055 11060 1
11055 11126 1
11055 11129 1
11055 11130 1
11056 11057 1
11056 11125 1
11056 11126 1
11056 11129 1
11056 11668 1
11056 11671 1
11056 11672 1
11056 11743 1
11057 11058 1
11057 11060 1
11057 11671 1
11057 11672 1
11057 11675 1
11058 11059 1
11058 11060 1
11058 11061 1
11059 11060 1
11059 11061 1
11059 11062 1
11059 11064 1
11059 11130 1
11059 11133 1
11059 11134 1
11060 11061 1
11060 11129 1
11060 11130 1
11060 11133 1
11060 11672 1
11060 11675 1
11060 11676 1
11060 11747 1
11061 11062 1
11061 11064 1
11061 11675 1
11061 11676 1
11061 11679 1
11062 11063 1
11062 11064 1
11062 11065 1
11063 11064 1
11063 11065 1
11063 11066 1
11063 11068 1
11063 11134 1
11063 11136 1
11063 11137 1
11064 11065 1
11064 11133 1
11064 11134 1
11064 11136 1
11064 11676 1
11064 11679 1
11064 11680 1
11064 11751 1
11065 11066 1
11065 11068 1
11065 11679 1
11065 11680 1
11065 11683 1
11066 11067 1
11066 11068 1
11066 11069 1
11067 11068 1
11067 11069 1
11067 11070 1
11067 11072 1
11067 11137 1
11067 11138 1
11067 11139 1
11068 11069 1
11068 11136 1
11068 11137 1
11068 11138 1
11068 11680 1
11068 11683 1
11068 11684 1
11068 11754 1
11069 11070 1
11069 11072 1
11069 11683 1
11069 11684 1
11069 11687 1
11070 11071 1
11070 11072 1
11070 11073 1
11071 11072 1
11071 11073 1
11071 11074 1
11071 11076 1
11071 11139 1
11071 11142 1
11071 11143 1
11072 11073 1
11072 11138 1
11072 11139 1
11072 11142 1
11072 11684 1
11072 11687 1
11072 11688 1
11072 11756 1
11073 11074 1
11073 11076 1
11073 11687 1
11073 11688 1
11073 11691 1
11074 11075 1
11074 11076 1
11074 11077 1
11075 11076 1
11075 11077 1
11075 11078 1
11075 11080 1
11075 11143 1
11075 11146 1
11075 11147 1
11076 11077 1
11076 11142 1
11076 11143 1
11076 11146 1
11076 11688 1
11076 11691 1
11076 11692 1
11076 11760 1
11077 11078 1
11077 11080 1
11077 11691 1
11077 11692 1
11077 11695 1
11078 11079 1
11078 11080 1
11078 11081 1
11079 11080 1
11079 11081 1
11079 11082 1
11079 11084 1
11079 11147 1
11079 11150 1
11079 11151 1
11080 11081 1
11080 11146 1
11080 11147 1
11080 11150 1
11080 11692 1
11080 11695 1
11080 11696 1
11080 11764 1
11081 11082 1
11081 11084 1
11081 11695 1
11081 11696 1
11081 11699 1
11082 11083 1
11082 11084 1
11082 11085 1
11083 11084 1
11083 11085 1
11083 11086 1
11083 11088 1
11083 11151 1
11083 11154 1
11083 11155 1
11084 11085 1
11084 11150 1
11084 11151 1
11084 11154 1
11084 11696 1
11084 11699 1
11084 11700 1
11084 11768 1
11085 11086 1
11085 11088 1
11085 11699 1
11085 11700 1
11085 11703 1
11086 11087 1
11086 11088 1
11086 11089 1
11087 11088 1
11087 11089 1
11087 11090 1
11087 11092 1
11087 11155 1
11087 11158 1
11087 11159 1
11088 11089 1
11088 11154 1
11088 11155 1
11088 11158 1
11088 11700 1
11088 11703 1
11088 11704 1
11088 11772 1
11089 11090 1
11089 11092 1
11089 11703 1
11089 11704 1
11089 11707 1
11090 11091 1
11090 11092 1
11090 11093 1
11091 11092 1
11091 11093 1
11091 11094 1
11091 11096 1
11091 11159 1
11091 11162 1
11091 11163 1
11092 11093 1
11092 11158 1
11092 11159 1
11092 11162 1
11092 11704 1
11092 11707 1
11092 11708 1
11092 11776 1
11093 11094 1
11093 11096 1
11093 11707 1
11093 11708 1
11093 11711 1
11094 11095 1
11094 11096 1
11094 11097 1
11095 11096 1
11095 11097 1
11095 11098 1
11095 11100 1
11095 11163 1
11095 11166 1
11095 11167 1
11096 11097 1
11096 11162 1
11096 11163 1
11096 11166 1
11096 11708 1
11096 11711 1
11096 11712 1
11096 11780 1
11097 11098 1
11097 11100 1
11097 11711 1
11097 11712 1
11097 11715 1
11098 11099 1
11098 11100 1
11098 11101 1
11099 11100 1
11099 11101 1
11099 11167 1
11099 11170 1
11100 11101 1
11100 11166 1
11100 11167 1
11100 11170 1
11100 11712 1
11100 11715 1
11100 11716 1
11100 11784 1
11101 11715 1
11101 11716 1
11102 11103 1
11102 11104 1
11102 11105 1
11103 11104 1
11103 11105 1
11103 11106 1
11103 11108 1
11103 11171 1
11103 11174 1
11103 11175 1
11104 11105 1
11104 11171 1
11104 11174 1
11104 11719 1
11104 11720 1
11104 11788 1
11105 11106 1
11105 11108 1
11105 11648 1
11105 11719 1
11105 11720 1
11105 11723 1
11106 11107 1
11106 11108 1
11106 11109 1
11107 11108 1
11107 11109 1
11107 11110 1
11107 11112 1
11107 11175 1
11107 11178 1
11107 11179 1
11108 11109 1
11108 11174 1
11108 11175 1
11108 11178 1
11108 11720 1
11108 11723 1
11108 11724 1
11108 11792 1
11109 11110 1
11109 11112 1
11109 11652 1
11109 11723 1
11109 11724 1
11109 11727 1
11110 11111 1
11110 11112 1
11110 11113 1
11111 11112 1
11111 11113 1
11111 11114 1
11111 11116 1
11111 11179 1
11111 11182 1
11111 11183 1
11112 11113 1
11112 11178 1
11112 11179 1
11112 11182 1
11112 11724 1
11112 11727 1
11112 11728 1
11112 11796 1
11113 11114 1
11113 11116 1
11113 11656 1
11113 11727 1
11113 11728 1
11113 11731 1
11114 11115 1
11114 11116 1
11114 11117 1
11115 11116 1
11115 11117 1
11115 11118 1
11115 11120 1
11115 11183 1
11115 11186 1
11115 11187 1
11116 11117 1
11116 11182 1
11116 11183 1
11116 11186 1
11116 11728 1
11116 11731 1
11116 11732 1
11116 11800 1
11117 11118 1
11117 11120 1
11117 11660 1
11117 11731 1
11117 11732 1
11117 11735 1
11118 11119 1
11118 11120 1
11118 11121 1
11119 11120 1
11119 11121 1
11119 11122 1
11119 11124 1
11119 11187 1
11119 11190 1
11119 11191 1
11120 11121 1
11120 11186 1
11120 11187 1
11120 11190 1
11120 11732 1
11120 11735 1
11120 11736 1
11120 11804 1
11121 11122 1
11121 11124 1
11121 11664 1
11121 11735 1
11121 11736 1
11121 11739 1
11122 11123 1
11122 11124 1
11122 11125 1
11123 11124 1
11123 11125 1
11123 11126 1
11123 11128 1
11123 11191 1
11123 11193 1
11123 11194 1
11124 11125 1
11124 11190 1
11124 11191 1
11124 11193 1
11124 11736 1
11124 11739 1
11124 11740 1
11124 11808 1
11125 11126 1
11125 11128 1
11125 11668 1
11125 11739 1
11125 11740 1
11125 11743 1
11126 11127 1
11126 11128 1
11126 11129 1
11127 11128 1
11127 11129 1
11127 11130 1
11127 11132 1
11127 11194 1
11128 11129 1
11128 11193 1
11128 11194 1
11128 11740 1
11128 11743 1
11128 11744 1
11128 11811 1
11129 11130 1
11129 11132 1
11129 11672 1
11129 11743 1
11129 11744 1
11129 11747 1
11130 11131 1
11130 11132 1
11130 11133 1
11131 11132 1
11131 11133 1
11131 11134 1
11131 11135 1
11132 11133 1
11132 11744 1
11132 11747 1
11132 11748 1
11133 11134 1
11133 11135 1
11133 11676 1
11133 11747 1
11133 11748 1
11133 11751 1
11134 11135 1
11134 11136 1
11135 11136 1
11135 11748 1
11135 11751 1
11136 11137 1
11136 11680 1
11136 11751 1
11136 11754 1
11137 11138 1
11138 11139 1
11138 11141 1
11138 11684 1
11138 11754 1
11138 11756 1
11139 11140 1
11139 11141 1
11139 11142 1
11140 11141 1
11140 11142 1
11140 11143 1
11140 11145 1
11141 11142 1
11141 11756 1
11141 11757 1
11142 11143 1
11142 11145 1
11142 11688 1
11142 11756 1
11142 11757 1
11142 11760 1
11143 11144 1
11143 11145 1
11143 11146 1
11144 11145 1
11144 11146 1
11144 11147 1
11144 11149 1
11144 11195 1
11145 11146 1
11145 11757 1
11145 11760 1
11145 11761 1
11146 11147 1
11146 11149 1
11146 11692 1
11146 11760 1
11146 11761 1
11146 11764 1
11147 11148 1
11147 11149 1
11147 11150 1
11148 11149 1
11148 11150 1
11148 11151 1
11148 11153 1
11148 11195 1
11148 11196 1
11148 11197 1
11149 11150 1
11149 11195 1
11149 11196 1
11149 11761 1
11149 11764 1
11149 11765 1
11149 11812 1
11150 11151 1
11150 11153 1
11150 11696 1
11150 11764 1
11150 11765 1
11150 11768 1
11151 11152 1
11151 11153 1
11151 11154 1
11152 11153 1
11152 11154 1
11152 11155 1
11152 11157 1
11152 11197 1
11152 11200 1
11152 11201 1
11153 11154 1
11153 11196 1
11153 11197 1
11153 11200 1
11153 11765 1
11153 11768 1
11153 11769 1
11153 11814 1
11154 11155 1
11154 11157 1
11154 11700 1
11154 11768 1
11154 11769 1
11154 11772 1
11155 11156 1
11155 11157 1
11155 11158 1
11156 11157 1
11156 11158 1
11156 11159 1
11156 11161 1
11156 11201 1
11156 11204 1
11156 11205 1
11157 11158 1
11157 11200 1
11157 11201 1
11157 11204 1
11157 11769 1
11157 11772 1
11157 11773 1
11157 11818 1
11158 11159 1
11158 11161 1
11158 11704 1
11158 11772 1
11158 11773 1
11158 11776 1
11159 11160 1
11159 11161 1
11159 11162 1
11160 11161 1
11160 11162 1
11160 11163 1
11160 11165 1
11160 11205 1
11160 11208 1
11160 11209 1
11161 11162 1
11161 11204 1
11161 11205 1
11161 11208 1
11161 11773 1
11161 11776 1
11161 11777 1
11161 11822 1
11162 11163 1
11162 11165 1
11162 11708 1
11162 11776 1
11162 11777 1
11162 11780 1
11163 11164 1
11163 11165 1
11163 11166 1
11164 11165 1
11164 11166 1
11164 11167 1
11164 11169 1
11164 11209 1
11164 11212 1
11164 11213 1
11165 11166 1
11165 11208 1
11165 11209 1
11165 11212 1
11165 11777 1
11165 11780 1
11165 11781 1
11165 11826 1
11166 11167 1
11166 11169 1
11166 11712 1
11166 11780 1
11166 11781 1
11166 11784 1
11167 11168 1
11167 11169 1
11167 11170 1
11168 11169 1
11168 11170 1
11168 11213 1
11168 11216 1
11169 11170 1
11169 11212 1
11169 11213 1
11169 11216 1
11169 11781 1
11169 11784 1
11169 11785 1
11169 11830 1
11170 11716 1
11170 11784 1
11170 11785 1
11171 11172 1
11171 11173 1
11171 11174 1
11172 11173 1
11172 11174 1
11172 11175 1
11172 11177 1
11172 11217 1
11172 11220 1
11172 11221 1
11173 11174 1
11173 11217 1
11173 11220 1
11173 11788 1
11173 11789 1
11173 11834 1
11174 11175 1
11174 11177 1
11174 11720 1
11174 11788 1
11174 11789 1
11174 11792 1
11175 11176 1
11175 11177 1
11175 11178 1
11176 11177 1
11176 11178 1
11176 11179 1
11176 11181 1
11176 11221 1
11176 11224 1
11176 11225 1
11177 11178 1
11177 11220 1
11177 11221 1
11177 11224 1
11177 11789 1
11177 11792 1
11177 11793 1
11177 11838 1
11178 11179 1
11178 11181 1
11178 11724 1
11178 11792 1
11178 11793 1
11178 11796 1
11179 11180 1
11179 11181 1
11179 11182 1
11180 11181 1
11180 11182 1
11180 11183 1
11180 11185 1
11180 11225 1
11180 11228 1
11180 11229 1
11181 11182 1
11181 11224 1
11181 11225 1
11181 11228 1
11181 11793 1
11181 11796 1
11181 11797 1
11181 11842 1
11182 11183 1
11182 11185 1
11182 11728 1
11182 11796 1
11182 11797 1
11182 11800 1
11183 11184 1
11183 11185 1
11183 11186 1
11184 11185 1
11184 11186 1
11184 11187 1
11184 11189 1
11184 11229 1
11184 11232 1
11184 11233 1
11185 11186 1
11185 11228 1
11185 11229 1
11185 11232 1
11185 11797 1
11185 11800 1
11185 11801 1
11185 11846 1
11186 11187 1
11186 11189 1
11186 11732 1
11186 11800 1
11186 11801 1
11186 11804 1
11187 11188 1
11187 11189 1
11187 11190 1
11188 11189 1
11188 11190 1
11188 11191 1
11188 11192 1
11188 11233 1
11189 11190 1
11189 11232 1
11189 11233 1
11189 11801 1
11189 11804 1
11189 11805 1
11189 11850 1
11190 11191 1
11190 11192 1
11190 11736 1
11190 11804 1
11190 11805 1
11190 11808 1
11191 11192 1
11191 11193 1
11192 11193 1
11192 11805 1
11192 11808 1
11193 11194 1
11193 11740 1
11193 11808 1
11193 11811 1
11195 11196 1
11196 11197 1
11196 11199 1
11196 11765 1
11196 11812 1
11196 11814 1
11197 11198 1
11197 11199 1
11197 11200 1
11198 11199 1
11198 11200 1
11198 11201 1
11198 11203 1
11198 11234 1
11198 11235 1
11199 11200 1
11199 11234 1
11199 11814 1
11199 11815 1
11200 11201 1
11200 11203 1
11200 11769 1
11200 11814 1
11200 11815 1
11200 11818 1
11201 11202 1
11201 11203 1
11201 11204 1
11202 11203 1
11202 11204 1
11202 11205 1
11202 11207 1
11202 11235 1
11202 11238 1
11202 11239 1
11203 11204 1
11203 11234 1
11203 11235 1
11203 11238 1
11203 11815 1
11203 11818 1
11203 11819 1
11203 11852 1
11204 11205 1
11204 11207 1
11204 11773 1
11204 11818 1
11204 11819 1
11204 11822 1
11205 11206 1
11205 11207 1
11205 11208 1
11206 11207 1
11206 11208 1
11206 11209 1
11206 11211 1
11206 11239 1
11206 11242 1
11206 11243 1
11207 11208 1
11207 11238 1
11207 11239 1
11207 11242 1
11207 11819 1
11207 11822 1
11207 11823 1
11207 11856 1
11208 11209 1
11208 11211 1
11208 11777 1
11208 11822 1
11208 11823 1
11208 11826 1
11209 11210 1
11209 11211 1
11209 11212 1
11210 11211 1
11210 11212 1
11210 11213 1
11210 11215 1
11210 11243 1
11210 11246 1
11210 11247 1
11211 11212 1
11211 11242 1
11211 11243 1
11211 11246 1
11211 11823 1
11211 11826 1
11211 11827 1
11211 11860 1
11212 11213 1
11212 11215 1
11212 11781 1
11212 11826 1
11212 11827 1
11212 11830 1
11213 11214 1
11213 11215 1
11213 11216 1
11214 11215 1
11214 11216 1
11214 11247 1
11214 11250 1
11215 11216 1
11215 11246 1
11215 11247 1
11215 11250 1
11215 11827 1
11215 11830 1
11215 11831 1
11215 11864 1
11216 11785 1
11216 11830 1
11216 11831 1
11217 11218 1
11217 11219 1
11217 11220 1
11218 11219 1
11218 11220 1
11218 11221 1
11218 11223 1
11218 11251 1
11218 11254 1
11218 11255 1
11219 11220 1
11219 11251 1
11219 11254 1
11219 11834 1
11219 11835 1
11219 11868 1
11220 11221 1
11220 11223 1
11220 11789 1
11220 11834 1
11220 11835 1
11220 11838 1
11221 11222 1
11221 11223 1
11221 11224 1
11222 11223 1
11222 11224 1
11222 11225 1
11222 11227 1
11222 11255 1
11222 11258 1
11222 11259 1
11223 11224 1
11223 11254 1
11223 11255 1
11223 11258 1
11223 11835 1
11223 11838 1
11223 11839 1
11223 11872 1
11224 11225 1
11224 11227 1
11224 11793 1
11224 11838 1
11224 11839 1
11224 11842 1
11225 11226 1
11225 11227 1
11225 11228 1
11226 11227 1
11226 11228 1
11226 11229 1
11226 11231 1
11226 11259 1
11226 11262 1
11226 11263 1
11227 11228 1
11227 11258 1
11227 11259 1
11227 11262 1
11227 11839 1
11227 11842 1
11227 11843 1
11227 11876 1
11228 11229 1
11228 11231 1
11228 11797 1
11228 11842 1
11228 11843 1
11228 11846 1
11229 11230 1
11229 11231 1
11229 11232 1
11230 11231 1
11230 11232 1
11230 11233 1
11230 11263 1
11231 11232 1
11231 11262 1
11231 11263 1
11231 11843 1
11231 11846 1
11231 11847 1
11231 11880 1
11232 11233 1
11232 11801 1
11232 11846 1
11232 11847 1
11232 11850 1
11234 11235 1
11234 11237 1
11234 11815 1
11234 11852 1
11235 11236 1
11235 11237 1
11235 11238 1
11236 11237 1
11236 11238 1
11236 11239 1
11236 11241 1
11236 11264 1
11236 11265 1
11237 11238 1
11237 11264 1
11237 11852 1
11237 11853 1
11238 11239 1
11238 11241 1
11238 11819 1
11238 11852 1
11238 11853 1
11238 11856 1
11239 11240 1
11239 11241 1
11239 11242 1
11240 11241 1
11240 11242 1
11240 11243 1
11240 11245 1
11240 11265 1
11240 11268 1
11240 11269 1
11241 11242 1
11241 11264 1
11241 11265 1
11241 11268 1
11241 11853 1
11241 11856 1
11241 11857 1
11241 11882 1
11242 11243 1
11242 11245 1
11242 11823 1
11242 11856 1
11242 11857 1
11242 11860 1
11243 11244 1
11243 11245 1
11243 11246 1
11244 11245 1
11244 11246 1
11244 11247 1
11244 11249 1
11244 11269 1
11244 11272 1
11244 11273 1
11245 11246 1
11245 11268 1
11245 11269 1
11245 11272 1
11245 11857 1
11245 11860 1
11245 11861 1
11245 11886 1
11246 11247 1
11246 11249 1
11246 11827 1
11246 11860 1
11246 11861 1
11246 11864 1
11247 11248 1
11247 11249 1
11247 11250 1
11248 11249 1
11248 11250 1
11248 11273 1
11248 11276 1
11249 11250 1
11249 11272 1
11249 11273 1
11249 11276 1
11249 11861 1
11249 11864 1
11249 11865 1
11249 11890 1
11250 11831 1
11250 11864 1
11250 11865 1
11251 11252 1
11251 11253 1
11251 11254 1
11252 11253 1
11252 11254 1
11252 11255 1
11252 11257 1
11252 11277 1
11252 11280 1
11252 11281 1
11253 11254 1
11253 11277 1
11253 11280 1
11253 11868 1
11253 11869 1
11253 11894 1
11254 11255 1
11254 11257 1
11254 11835 1
11254 11868 1
11254 11869 1
11254 11872 1
11255 11256 1
11255 11257 1
11255 11258 1
11256 11257 1
11256 11258 1
11256 11259 1
11256 11261 1
11256 11281 1
11256 11284 1
11256 11285 1
11257 11258 1
11257 11280 1
11257 11281 1
11257 11284 1
11257 11869 1
11257 11872 1
11257 11873 1
11257 11898 1
11258 11259 1
11258 11261 1
11258 11839 1
11258 11872 1
11258 11873 1
11258 11876 1
11259 11260 1
11259 11261 1
11259 11262 1
11260 11261 1
11260 11262 1
11260 11263 1
11260 11285 1
11260 11287 1
11261 11262 1
11261 11284 1
11261 11285 1
11261 11287 1
11261 11873 1
11261 11876 1
11261 11877 1
11261 11902 1
11262 11263 1
11262 11843 1
11262 11876 1
11262 11877 1
11262 11880 1
11264 11265 1
11264 11267 1
11264 11853 1
11264 11882 1
11265 11266 1
11265 11267 1
11265 11268 1
11266 11267 1
11266 11268 1
11266 11269 1
11266 11271 1
11266 11289 1
11266 11290 1
11267 11268 1
11267 11289 1
11267 11882 1
11267 11883 1
11268 11269 1
11268 11271 1
11268 11857 1
11268 11882 1
11268 11883 1
11268 11886 1
11269 11270 1
11269 11271 1
11269 11272 1
11270 11271 1
11270 11272 1
11270 11273 1
11270 11275 1
11270 11290 1
11270 11293 1
11270 11294 1
11271 11272 1
11271 11289 1
11271 11290 1
11271 11293 1
11271 11883 1
11271 11886 1
11271 11887 1
11271 11907 1
11272 11273 1
11272 11275 1
11272 11861 1
11272 11886 1
11272 11887 1
11272 11890 1
11273 11274 1
11273 11275 1
11273 11276 1
11274 11275 1
11274 11276 1
11274 11294 1
11274 11297 1
11275 11276 1
11275 11293 1
11275 11294 1
11275 11297 1
11275 11887 1
11275 11890 1
11275 11891 1
11275 11911 1
11276 11865 1
11276 11890 1
11276 11891 1
11277 11278 1
11277 11279 1
11277 11280 1
11278 11279 1
11278 11280 1
11278 11281 1
11278 11283 1
11278 11298 1
11278 11301 1
11278 11302 1
11279 11280 1
11279 11298 1
11279 11301 1
11279 11894 1
11279 11895 1
11279 11915 1
11280 11281 1
11280 11283 1
11280 11869 1
11280 11894 1
11280 11895 1
11280 11898 1
11281 11282 1
11281 11283 1
11281 11284 1
11282 11283 1
11282 11284 1
11282 11285 1
11282 11286 1
11282 11302 1
11282 11305 1
11282 11306 1
11283 11284 1
11283 11301 1
11283 11302 1
11283 11305 1
11283 11895 1
11283 11898 1
11283 11899 1
11283 11919 1
11284 11285 1
11284 11286 1
11284 11873 1
11284 11898 1
11284 11899 1
11284 11902 1
11285 11286 1
11285 11287 1
11286 11287 1
11286 11305 1
11286 11306 1
11286 11899 1
11286 11902 1
11286 11923 1
11287 11877 1
11287 11902 1
11288 11289 1
11288 11290 1
11288 11292 1
11288 11307 1
11289 11290 1
11289 11292 1
11289 11883 1
11289 11905 1
11289 11907 1
11290 11291 1
11290 11292 1
11290 11293 1
11291 11292 1
11291 11293 1
11291 11294 1
11291 11296 1
11291 11307 1
11291 11310 1
11291 11311 1
11292 11293 1
11292 11307 1
11292 11310 1
11292 11905 1
11292 11907 1
11292 11908 1
11292 11924 1
11293 11294 1
11293 11296 1
11293 11887 1
11293 11907 1
11293 11908 1
11293 11911 1
11294 11295 1
11294 11296 1
11294 11297 1
11295 11296 1
11295 11297 1
11295 11311 1
11295 11314 1
11296 11297 1
11296 11310 1
11296 11311 1
11296 11314 1
11296 11908 1
11296 11911 1
11296 11912 1
11296 11928 1
11297 11891 1
11297 11911 1
11297 11912 1
11298 11299 1
11298 11300 1
11298 11301 1
11299 11300 1
11299 11301 1
11299 11302 1
11299 11304 1
11299 11315 1
11299 11318 1
11299 11319 1
11300 11301 1
11300 11315 1
11300 11318 1
11300 11915 1
11300 11916 1
11300 11932 1
11301 11302 1
11301 11304 1
11301 11895 1
11301 11915 1
11301 11916 1
11301 11919 1
11302 11303 1
11302 11304 1
11302 11305 1
11303 11304 1
11303 11305 1
11303 11306 1
11303 11319 1
11303 11322 1
11304 11305 1
11304 11318 1
11304 11319 1
11304 11322 1
11304 11916 1
11304 11919 1
11304 11920 1
11304 11936 1
11305 11306 1
11305 11899 1
11305 11919 1
11305 11920 1
11305 11923 1
11307 11308 1
11307 11309 1
11307 11310 1
11308 11309 1
11308 11310 1
11308 11311 1
11308 11313 1
11308 11323 1
11308 11325 1
11308 11326 1
11309 11310 1
11309 11323 1
11309 11325 1
11309 11924 1
11309 11925 1
11309 11940 1
11310 11311 1
11310 11313 1
11310 11908 1
11310 11924 1
11310 11925 1
11310 11928 1
11311 11312 1
11311 11313 1
11311 11314 1
11312 11313 1
11312 11314 1
11312 11326 1
11312 11329 1
11313 11314 1
11313 11325 1
11313 11326 1
11313 11329 1
11313 11925 1
11313 11928 1
11313 11929 1
11313 11943 1
11314 11912 1
11314 11928 1
11314 11929 1
11315 11316 1
11315 11317 1
11315 11318 1
11316 11317 1
11316 11318 1
11316 11319 1
11316 11321 1
11316 11330 1
11316 11333 1
11316 11334 1
11317 11318 1
11317 11330 1
11317 11333 1
11317 11932 1
11317 11933 1
11317 11947 1
11318 11319 1
11318 11321 1
11318 11916 1
11318 11932 1
11318 11933 1
11318 11936 1
11319 11320 1
11319 11321 1
11319 11322 1
11320 11321 1
11320 11322 1
11320 11334 1
11320 11336 1
11321 11322 1
11321 11333 1
11321 11334 1
11321 11336 1
11321 11933 1
11321 11936 1
11321 11937 1
11321 11951 1
11322 11920 1
11322 11936 1
11322 11937 1
11323 11324 1
11323 11325 1
11324 11325 1
11324 11326 1
11324 11328 1
11324 11338 1
11324 11339 1
11325 11326 1
11325 11328 1
11325 11925 1
11325 11940 1
11325 11941 1
11325 11943 1
11326 11327 1
11326 11328 1
11326 11329 1
11327 11328 1
11327 11329 1
11327 11339 1
11327 11342 1
11328 11329 1
11328 11338 1
11328 11339 1
11328 11342 1
11328 11941 1
11328 11943 1
11328 11944 1
11328 11956 1
11329 11929 1
11329 11943 1
11329 11944 1
11330 11331 1
11330 11332 1
11330 11333 1
11331 11332 1
11331 11333 1
11331 11334 1
11331 11335 1
11331 11343 1
11331 11346 1
11331 11347 1
11332 11333 1
11332 11343 1
11332 11346 1
11332 11947 1
11332 11948 1
11332 11960 1
11333 11334 1
11333 11335 1
11333 11933 1
11333 11947 1
11333 11948 1
11333 11951 1
11334 11335 1
11334 11336 1
11335 11336 1
11335 11346 1
11335 11347 1
11335 11948 1
11335 11951 1
11335 11964 1
11336 11937 1
11336 11951 1
11337 11338 1
11337 11339 1
11337 11341 1
11337 11350 1
11337 11351 1
11338 11339 1
11338 11341 1
11338 11941 1
11338 11954 1
11338 11956 1
11339 11340 1
11339 11341 1
11339 11342 1
11340 11341 1
11340 11342 1
11340 11351 1
11340 11354 1
11341 11342 1
11341 11350 1
11341 11351 1
11341 11354 1
11341 11954 1
11341 11956 1
11341 11957 1
11341 11968 1
11342 11944 1
11342 11956 1
11342 11957 1
11343 11344 1
11343 11345 1
11343 11346 1
11344 11345 1
11344 11346 1
11344 11347 1
11344 11348 1
11344 11355 1
11344 11358 1
11344 11359 1
11345 11346 1
11345 11355 1
11345 11358 1
11345 11960 1
11345 11961 1
11345 11972 1
11346 11347 1
11346 11348 1
11346 11948 1
11346 11960 1
11346 11961 1
11346 11964 1
11347 11348 1
11348 11358 1
11348 11359 1
11348 11362 1
11348 11961 1
11348 11964 1
11348 11976 1
11349 11350 1
11349 11351 1
11349 11353 1
11349 11365 1
11349 11366 1
11350 11351 1
11350 11353 1
11350 11954 1
11350 11966 1
11350 11968 1
11351 11352 1
11351 11353 1
11351 11354 1
11352 11353 1
11352 11354 1
11352 11366 1
11352 11369 1
11353 11354 1
11353 11365 1
11353 11366 1
11353 11369 1
11353 11966 1
11353 11968 1
11353 11969 1
11353 11983 1
11354 11957 1
11354 11968 1
11354 11969 1
11355 11356 1
11355 11357 1
11355 11358 1
11356 11357 1
11356 11358 1
11356 11359 1
11356 11361 1
11356 11370 1
11356 11373 1
11356 11374 1
11357 11358 1
11357 11370 1
11357 11373 1
11357 11972 1
11357 11973 1
11357 11987 1
11358 11359 1
11358 11361 1
11358 11961 1
11358 11972 1
11358 11973 1
11358 11976 1
11359 11360 1
11359 11361 1
11359 11362 1
11360 11361 1
11360 11362 1
11360 11374 1
11360 11377 1
11361 11362 1
11361 11373 1
11361 11374 1
11361 11377 1
11361 11973 1
11361 11976 1
11361 11977 1
11361 11991 1
11362 11976 1
11362 11977 1
11363 11364 1
11363 11365 1
11363 11366 1
11363 11368 1
11363 11378 1
11363 11381 1
11363 11382 1
11364 11365 1
11364 11378 1
11364 11381 1
11364 11980 1
11364 11995 1
11365 11366 1
11365 11368 1
11365 11966 1
11365 11980 1
11365 11983 1
11366 11367 1
11366 11368 1
11366 11369 1
11367 11368 1
11367 11369 1
11367 11382 1
11367 11385 1
11368 11369 1
11368 11381 1
11368 11382 1
11368 11385 1
11368 11980 1
11368 11983 1
11368 11984 1
11368 11999 1
11369 11969 1
11369 11983 1
11369 11984 1
11370 11371 1
11370 11372 1
11370 11373 1
11371 11372 1
11371 11373 1
11371 11374 1
11371 11376 1
11371 11386 1
11371 11389 1
11371 11390 1
11372 11373 1
11372 11386 1
11372 11389 1
11372 11987 1
11372 11988 1
11372 12003 1
11373 11374 1
11373 11376 1
11373 11973 1
11373 11987 1
11373 11988 1
11373 11991 1
11374 11375 1
11374 11376 1
11374 11377 1
11375 11376 1
11375 11377 1
11375 11390 1
11375 11393 1
11375 11394 1
11376 11377 1
11376 11389 1
11376 11390 1
11376 11393 1
11376 11988 1
11376 11991 1
11376 11992 1
11376 12007 1
11377 11977 1
11377 11991 1
11377 11992 1
11378 11379 1
11378 11380 1
11378 11381 1
11379 11380 1
11379 11381 1
11379 11382 1
11379 11384 1
11379 11398 1
11379 11401 1
11379 11402 1
11380 11381 1
11380 11397 1
11380 11398 1
11380 11401 1
11380 11995 1
11380 11996 1
11380 12015 1
11381 11382 1
11381 11384 1
11381 11980 1
11381 11995 1
11381 11996 1
11381 11999 1
11382 11383 1
11382 11384 1
11382 11385 1
11383 11384 1
11383 11385 1
11383 11402 1
11383 11405 1
11384 11385 1
11384 11401 1
11384 11402 1
11384 11405 1
11384 11996 1
11384 11999 1
11384 12000 1
11384 12019 1
11385 11984 1
11385 11999 1
11385 12000 1
11386 11387 1
11386 11388 1
11386 11389 1
11387 11388 1
11387 11389 1
11387 11390 1
11387 11392 1
11387 11406 1
11387 11409 1
11387 11410 1
11388 11389 1
11388 11406 1
11388 11409 1
11388 12003 1
11388 12004 1
11388 12023 1
11389 11390 1
11389 11392 1
11389 11988 1
11389 12003 1
11389 12004 1
11389 12007 1
11390 11391 1
11390 11392 1
11390 11393 1
11391 11392 1
11391 11393 1
11391 11394 1
11391 11395 1
11391 11410 1
11391 11413 1
11391 11414 1
11392 11393 1
11392 11409 1
11392 11410 1
11392 11413 1
11392 12004 1
11392 12007 1
11392 12008 1
11392 12027 1
11393 11394 1
11393 11395 1
11393 11992 1
11393 12007 1
11393 12008 1
11393 12011 1
11394 11395 1
11395 11413 1
11395 11414 1
11395 11417 1
11395 12008 1
11395 12011 1
11395 12031 1
11396 11397 1
11396 11398 1
11396 11400 1
11396 11420 1
11396 11423 1
11396 11424 1
11397 11398 1
11397 11400 1
11397 12013 1
11397 12015 1
11398 11399 1
11398 11400 1
11398 11401 1
11399 11400 1
11399 11401 1
11399 11402 1
11399 11404 1
11399 11424 1
11399 11427 1
11399 11428 1
11400 11401 1
11400 11423 1
11400 11424 1
11400 11427 1
11400 12013 1
11400 12015 1
11400 12016 1
11400 12041 1
11401 11402 1
11401 11404 1
11401 11996 1
11401 12015 1
11401 12016 1
11401 12019 1
11402 11403 1
11402 11404 1
11402 11405 1
11403 11404 1
11403 11405 1
11403 11428 1
11403 11431 1
11404 11405 1
11404 11427 1
11404 11428 1
11404 11431 1
11404 12016 1
11404 12019 1
11404 12020 1
11404 12045 1
11405 12000 1
11405 12019 1
11405 12020 1
11406 11407 1
11406 11408 1
11406 11409 1
11407 11408 1
11407 11409 1
11407 11410 1
11407 11412 1
11407 11432 1
11407 11435 1
11407 11436 1
11408 11409 1
11408 11432 1
11408 11435 1
11408 12023 1
11408 12024 1
11408 12049 1
11409 11410 1
11409 11412 1
11409 12004 1
11409 12023 1
11409 12024 1
11409 12027 1
11410 11411 1
11410 11412 1
11410 11413 1
11411 11412 1
11411 11413 1
11411 11414 1
11411 11416 1
11411 11436 1
11411 11439 1
11411 11440 1
11412 11413 1
11412 11435 1
11412 11436 1
11412 11439 1
11412 12024 1
11412 12027 1
11412 12028 1
11412 12053 1
11413 11414 1
11413 11416 1
11413 12008 1
11413 12027 1
11413 12028 1
11413 12031 1
11414 11415 1
11414 11416 1
11414 11417 1
11415 11416 1
11415 11417 1
11415 11418 1
11415 11440 1
11415 11443 1
11415 11444 1
11416 11417 1
11416 11439 1
11416 11440 1
11416 11443 1
11416 12028 1
11416 12031 1
11416 12032 1
11416 12057 1
11417 11418 1
11417 12031 1
11417 12032 1
11418 11443 1
11418 11444 1
11418 11447 1
11418 12032 1
11418 12061 1
11419 11420 1
11419 11422 1
11419 11452 1
11419 11453 1
11420 11421 1
11420 11422 1
11420 11423 1
11421 11422 1
11421 11423 1
11421 11424 1
11421 11426 1
11421 11453 1
11421 11456 1
11421 11457 1
11422 11423 1
11422 11452 1
11422 11453 1
11422 11456 1
11422 12036 1
11422 12037 1
11422 12038 1
11422 12070 1
11423 11424 1
11423 11426 1
11423 12013 1
11423 12037 1
11423 12038 1
11423 12041 1
11424 11425 1
11424 11426 1
11424 11427 1
11425 11426 1
11425 11427 1
11425 11428 1
11425 11430 1
11425 11457 1
11425 11460 1
11425 11461 1
11426 11427 1
11426 11456 1
11426 11457 1
11426 11460 1
11426 12038 1
11426 12041 1
11426 12042 1
11426 12074 1
11427 11428 1
11427 11430 1
11427 12016 1
11427 12041 1
11427 12042 1
11427 12045 1
11428 11429 1
11428 11430 1
11428 11431 1
11429 11430 1
11429 11431 1
11429 11461 1
11429 11464 1
11430 11431 1
11430 11460 1
11430 11461 1
11430 11464 1
11430 12042 1
11430 12045 1
11430 12046 1
11430 12078 1
11431 12020 1
11431 12045 1
11431 12046 1
11432 11433 1
11432 11434 1
11432 11435 1
11433 11434 1
11433 11435 1
11433 11436 1
11433 11438 1
11433 11465 1
11433 11468 1
11433 11469 1
11434 11435 1
11434 11465 1
11434 11468 1
11434 12049 1
11434 12050 1
11434 12082 1
11435 11436 1
11435 11438 1
11435 12024 1
11435 12049 1
11435 12050 1
11435 12053 1
11436 11437 1
11436 11438 1
11436 11439 1
11437 11438 1
11437 11439 1
11437 11440 1
11437 11442 1
11437 11469 1
11437 11472 1
11437 11473 1
11438 11439 1
11438 11468 1
11438 11469 1
11438 11472 1
11438 12050 1
11438 12053 1
11438 12054 1
11438 12086 1
11439 11440 1
11439 11442 1
11439 12028 1
11439 12053 1
11439 12054 1
11439 12057 1
11440 11441 1
11440 11442 1
11440 11443 1
11441 11442 1
11441 11443 1
11441 11444 1
11441 11446 1
11441 11473 1
11441 11476 1
11441 11477 1
11442 11443 1
11442 11472 1
11442 11473 1
11442 11476 1
11442 12054 1
11442 12057 1
11442 12058 1
11442 12090 1
11443 11444 1
11443 11446 1
11443 12032 1
11443 12057 1
11443 12058 1
11443 12061 1
11444 11445 1
11444 11446 1
11444 11447 1
11445 11446 1
11445 11447 1
11445 11448 1
11445 11477 1
11445 11480 1
11445 11481 1
11446 11447 1
11446 11476 1
11446 11477 1
11446 11480 1
11446 12058 1
11446 12061 1
11446 12062 1
11446 12094 1
11447 11448 1
11447 12061 1
11447 12062 1
11448 11480 1
11448 11481 1
11448 11484 1
11448 12062 1
11448 12098 1
11449 11451 1
11449 11489 1
11449 11492 1
11449 11493 1
11450 11451 1
11450 11452 1
11450 11453 1
11450 11455 1
11450 11493 1
11450 11496 1
11450 11497 1
11451 11452 1
11451 11492 1
11451 11493 1
11451 11496 1
11451 12066 1
11451 12067 1
11451 12110 1
11452 11453 1
11452 11455 1
11452 12036 1
11452 12067 1
11452 12070 1
11453 11454 1
11453 11455 1
11453 11456 1
11454 11455 1
11454 11456 1
11454 11457 1
11454 11459 1
11454 11497 1
11454 11500 1
11454 11501 1
11455 11456 1
11455 11496 1
11455 11497 1
11455 11500 1
11455 12067 1
11455 12070 1
11455 12071 1
11455 12114 1
11456 11457 1
11456 11459 1
11456 12038 1
11456 12070 1
11456 12071 1
11456 12074 1
11457 11458 1
11457 11459 1
11457 11460 1
11458 11459 1
11458 11460 1
11458 11461 1
11458 11463 1
11458 11501 1
11458 11504 1
11458 11505 1
11459 11460 1
11459 11500 1
11459 11501 1
11459 11504 1
11459 12071 1
11459 12074 1
11459 12075 1
11459 12118 1
11460 11461 1
11460 11463 1
11460 12042 1
11460 12074 1
11460 12075 1
11460 12078 1
11461 11462 1
11461 11463 1
11461 11464 1
11462 11463 1
11462 11464 1
11462 11505 1
11462 11508 1
11463 11464 1
11463 11504 1
11463 11505 1
11463 11508 1
11463 12075 1
11463 12078 1
11463 12079 1
11463 12122 1
11464 12046 1
11464 12078 1
11464 12079 1
11465 11466 1
11465 11467 1
11465 11468 1
11466 11467 1
11466 11468 1
11466 11469 1
11466 11471 1
11466 11509 1
11466 11512 1
11466 11513 1
11467 11468 1
11467 11509 1
11467 11512 1
11467 12082 1
11467 12083 1
11467 12126 1
11468 11469 1
11468 11471 1
11468 12050 1
11468 12082 1
11468 12083 1
11468 12086 1
11469 11470 1
11469 11471 1
11469 11472 1
11470 11471 1
11470 11472 1
11470 11473 1
11470 11475 1
11470 11513 1
11470 11516 1
11470 11517 1
11471 11472 1
11471 11512 1
11471 11513 1
11471 11516 1
11471 12083 1
11471 12086 1
11471 12087 1
11471 12130 1
11472 11473 1
11472 11475 1
11472 12054 1
11472 12086 1
11472 12087 1
11472 12090 1
11473 11474 1
11473 11475 1
11473 11476 1
11474 11475 1
11474 11476 1
11474 11477 1
11474 11479 1
11474 11517 1
11474 11520 1
11474 11521 1
11475 11476 1
11475 11516 1
11475 11517 1
11475 11520 1
11475 12087 1
11475 12090 1
11475 12091 1
11475 12134 1
11476 11477 1
11476 11479 1
11476 12058 1
11476 12090 1
11476 12091 1
11476 12094 1
11477 11478 1
11477 11479 1
11477 11480 1
11478 11479 1
11478 11480 1
11478 11481 1
11478 11483 1
11478 11521 1
11478 11524 1
11478 11525 1
11479 11480 1
11479 11520 1
11479 11521 1
11479 11524 1
11479 12091 1
11479 12094 1
11479 12095 1
11479 12138 1
11480 11481 1
11480 11483 1
11480 12062 1
11480 12094 1
11480 12095 1
11480 12098 1
11481 11482 1
11481 11483 1
11481 11484 1
11482 11483 1
11482 11484 1
11482 11486 1
11482 11525 1
11482 11528 1
11482 11529 1
11483 11484 1
11483 11524 1
11483 11525 1
11483 11528 1
11483 12095 1
11483 12098 1
11483 12099 1
11483 12142 1
11484 11486 1
11484 12098 1
11484 12099 1
11485 11486 1
11485 11529 1
11485 11532 1
11485 11533 1
11486 11528 1
11486 11529 1
11486 11532 1
11486 12099 1
11486 12102 1
11486 12146 1
11487 11488 1
11487 11489 1
11487 11491 1
11487 11551 1
11487 11554 1
11487 11555 1
11488 11550 1
11488 11551 1
11488 11554 1
11488 12104 1
11488 12168 1
11489 11490 1
11489 11491 1
11489 11492 1
11490 11491 1
11490 11492 1
11490 11493 1
11490 11495 1
11490 11555 1
11490 11558 1
11490 11559 1
11491 11492 1
11491 11554 1
11491 11555 1
11491 11558 1
11491 12104 1
11491 12106 1
11491 12107 1
11491 12172 1
11492 11493 1
11492 11495 1
11492 12066 1
11492 12106 1
11492 12107 1
11492 12110 1
11493 11494 1
11493 11495 1
11493 11496 1
11494 11495 1
11494 11496 1
11494 11497 1
11494 11499 1
11494 11559 1
11494 11562 1
11494 11563 1
11495 11496 1
11495 11558 1
11495 11559 1
11495 11562 1
11495 12107 1
11495 12110 1
11495 12111 1
11495 12176 1
11496 11497 1
11496 11499 1
11496 12067 1
11496 12110 1
11496 12111 1
11496 12114 1
11497 11498 1
11497 11499 1
11497 11500 1
11498 11499 1
11498 11500 1
11498 11501 1
11498 11503 1
11498 11563 1
11498 11566 1
11498 11567 1
11499 11500 1
11499 11562 1
11499 11563 1
11499 11566 1
11499 12111 1
11499 12114 1
11499 12115 1
11499 12180 1
11500 11501 1
11500 11503 1
11500 12071 1
11500 12114 1
11500 12115 1
11500 12118 1
11501 11502 1
11501 11503 1
11501 11504 1
11502 11503 1
11502 11504 1
11502 11505 1
11502 11507 1
11502 11567 1
11502 11570 1
11502 11571 1
11503 11504 1
11503 11566 1
11503 11567 1
11503 11570 1
11503 12115 1
11503 12118 1
11503 12119 1
11503 12184 1
11504 11505 1
11504 11507 1
11504 12075 1
11504 12118 1
11504 12119 1
11504 12122 1
11505 11506 1
11505 11507 1
11505 11508 1
11506 11507 1
11506 11508 1
11506 11571 1
11506 11574 1
11507 11508 1
11507 11570 1
11507 11571 1
11507 11574 1
11507 12119 1
11507 12122 1
11507 12123 1
11507 12188 1
11508 12079 1
11508 12122 1
11508 12123 1
11509 11510 1
11509 11511 1
11509 11512 1
11510 11511 1
11510 11512 1
11510 11513 1
11510 11515 1
11510 11575 1
11510 11578 1
11510 11579 1
11511 11512 1
11511 11575 1
11511 11578 1
11511 12126 1
11511 12127 1
11511 12192 1
11512 11513 1
11512 11515 1
11512 12083 1
11512 12126 1
11512 12127 1
11512 12130 1
11513 11514 1
11513 11515 1
11513 11516 1
11514 11515 1
11514 11516 1
11514 11517 1
11514 11519 1
11514 11579 1
11514 11582 1
11514 11583 1
11515 11516 1
11515 11578 1
11515 11579 1
11515 11582 1
11515 12127 1
11515 12130 1
11515 12131 1
11515 12196 1
11516 11517 1
11516 11519 1
11516 12087 1
11516 12130 1
11516 12131 1
11516 12134 1
11517 11518 1
11517 11519 1
11517 11520 1
11518 11519 1
11518 11520 1
11518 11521 1
11518 11523 1
11518 11583 1
11518 11586 1
11518 11587 1
11519 11520 1
11519 11582 1
11519 11583 1
11519 11586 1
11519 12131 1
11519 12134 1
11519 12135 1
11519 12200 1
11520 11521 1
11520 11523 1
11520 12091 1
11520 12134 1
11520 12135 1
11520 12138 1
11521 11522 1
11521 11523 1
11521 11524 1
11522 11523 1
11522 11524 1
11522 11525 1
11522 11527 1
11522 11587 1
11522 11590 1
11522 11591 1
11523 11524 1
11523 11586 1
11523 11587 1
11523 11590 1
11523 12135 1
11523 12138 1
11523 12139 1
11523 12204 1
11524 11525 1
11524 11527 1
11524 12095 1
11524 12138 1
11524 12139 1
11524 12142 1
11525 11526 1
11525 11527 1
11525 11528 1
11526 11527 1
11526 11528 1
11526 11529 1
11526 11531 1
11526 11591 1
11526 11594 1
11526 11595 1
11527 11528 1
11527 11590 1
11527 11591 1
11527 11594 1
11527 12139 1
11527 12142 1
11527 12143 1
11527 12208 1
11528 11529 1
11528 11531 1
11528 12099 1
11528 12142 1
11528 12143 1
11528 12146 1
11529 11530 1
11529 11531 1
11529 11532 1
11530 11531 1
11530 11532 1
11530 11533 1
11530 11535 1
11530 11595 1
11530 11598 1
11530 11599 1
11531 11532 1
11531 11594 1
11531 11595 1
11531 11598 1
11531 12143 1
11531 12146 1
11531 12147 1
11531 12212 1
11532 11533 1
11532 11535 1
11532 12102 1
11532 12146 1
11532 12147 1
11532 12150 1
11533 11534 1
11533 11535 1
11533 11536 1
11534 11535 1
11534 11536 1
11534 11537 1
11534 11539 1
11534 11599 1
11534 11602 1
11534 11603 1
11535 11536 1
11535 11598 1
11535 11599 1
11535 11602 1
11535 12147 1
11535 12150 1
11535 12151 1
11535 12216 1
11536 11537 1
11536 11539 1
11536 12150 1
11536 12151 1
11536 12154 1
11537 11538 1
11537 11539 1
11538 11539 1
11538 11541 1
11538 11603 1
11538 11606 1
11538 11607 1
11539 11602 1
11539 11603 1
11539 11606 1
11539 12151 1
11539 12154 1
11539 12155 1
11539 12220 1
11540 11541 1
11540 11543 1
11540 11607 1
11540 11610 1
11540 11611 1
11541 11606 1
11541 11607 1
11541 11610 1
11541 12155 1
11541 12157 1
11541 12224 1
11542 11543 1
11542 11545 1
11542 11611 1
11542 11614 1
11542 11615 1
11543 11610 1
11543 11611 1
11543 11614 1
11543 12157 1
11543 12159 1
11543 12228 1
11544 11545 1
11544 11546 1
11544 11547 1
11544 11549 1
11544 11615 1
11544 11618 1
11544 11619 1
11545 11546 1
11545 11614 1
11545 11615 1
11545 11618 1
11545 12159 1
11545 12161 1
11545 12232 1
11546 11547 1
11546 11549 1
11546 12161 1
11546 12164 1
11547 11548 1
11547 11549 1
11547 11550 1
11548 11549 1
11548 11550 1
11548 11551 1
11548 11553 1
11548 11619 1
11548 11622 1
11548 11623 1
11549 11550 1
11549 11618 1
11549 11619 1
11549 11622 1
11549 12161 1
11549 12164 1
11549 12165 1
11549 12236 1
11550 11551 1
11550 11553 1
11550 12164 1
11550 12165 1
11550 12168 1
11551 11552 1
11551 11553 1
11551 11554 1
11552 11553 1
11552 11554 1
11552 11555 1
11552 11557 1
11552 11623 1
11552 11626 1
11552 11627 1
11553 11554 1
11553 11622 1
11553 11623 1
11553 11626 1
11553 12165 1
11553 12168 1
11553 12169 1
11553 12240 1
11554 11555 1
11554 11557 1
11554 12104 1
11554 12168 1
11554 12169 1
11554 12172 1
11555 11556 1
11555 11557 1
11555 11558 1
11556 11557 1
11556 11558 1
11556 11559 1
11556 11561 1
11556 11627 1
11556 11630 1
11556 11631 1
11557 11558 1
11557 11626 1
11557 11627 1
11557 11630 1
11557 12169 1
11557 12172 1
11557 12173 1
11557 12244 1
11558 11559 1
11558 11561 1
11558 12107 1
11558 12172 1
11558 12173 1
11558 12176 1
11559 11560 1
11559 11561 1
11559 11562 1
11560 11561 1
11560 11562 1
11560 11563 1
11560 11565 1
11560 11631 1
11560 11634 1
11560 11635 1
11561 11562 1
11561 11630 1
11561 11631 1
11561 11634 1
11561 12173 1
11561 12176 1
11561 12177 1
11561 12248 1
11562 11563 1
11562 11565 1
11562 12111 1
11562 12176 1
11562 12177 1
11562 12180 1
11563 11564 1
11563 11565 1
11563 11566 1
11564 11565 1
11564 11566 1
11564 11567 1
11564 11569 1
11564 11635 1
11564 11638 1
11564 11639 1
11565 11566 1
11565 11634 1
11565 11635 1
11565 11638 1
11565 12177 1
11565 12180 1
11565 12181 1
11565 12252 1
11566 11567 1
11566 11569 1
11566 12115 1
11566 12180 1
11566 12181 1
11566 12184 1
11567 11568 1
11567 11569 1
11567 11570 1
11568 11569 1
11568 11570 1
11568 11571 1
11568 11573 1
11568 11639 1
11568 11642 1
11568 11643 1
11569 11570 1
11569 11638 1
11569 11639 1
11569 11642 1
11569 12181 1
11569 12184 1
11569 12185 1
11569 12256 1
11570 11571 1
11570 11573 1
11570 12119 1
11570 12184 1
11570 12185 1
11570 12188 1
11571 11572 1
11571 11573 1
11571 11574 1
11572 11573 1
11572 11574 1
11572 11643 1
11572 11646 1
11573 11574 1
11573 11642 1
11573 11643 1
11573 11646 1
11573 12185 1
11573 12188 1
11573 12189 1
11573 12260 1
11574 12123 1
11574 12188 1
11574 12189 1
11575 11576 1
11575 11577 1
11575 11578 1
11576 11577 1
11576 11578 1
11576 11579 1
11576 11581 1
11577 11578 1
11577 12192 1
11577 12193 1
11578 11579 1
11578 11581 1
11578 12127 1
11578 12192 1
11578 12193 1
11578 12196 1
11579 11580 1
11579 11581 1
11579 11582 1
11580 11581 1
11580 11582 1
11580 11583 1
11580 11585 1
11581 11582 1
11581 12193 1
11581 12196 1
11581 12197 1
11582 11583 1
11582 11585 1
11582 12131 1
11582 12196 1
11582 12197 1
11582 12200 1
11583 11584 1
11583 11585 1
11583 11586 1
11584 11585 1
11584 11586 1
11584 11587 1
11584 11589 1
11585 11586 1
11585 12197 1
11585 12200 1
11585 12201 1
11586 11587 1
11586 11589 1
11586 12135 1
11586 12200 1
11586 12201 1
11586 12204 1
11587 11588 1
11587 11589 1
11587 11590 1
11588 11589 1
11588 11590 1
11588 11591 1
11588 11593 1
11589 11590 1
11589 12201 1
11589 12204 1
11589 12205 1
11590 11591 1
11590 11593 1
11590 12139 1
11590 12204 1
11590 12205 1
11590 12208 1
11591 11592 1
11591 11593 1
11591 11594 1
11592 11593 1
11592 11594 1
11592 11595 1
11592 11597 1
11593 11594 1
11593 12205 1
11593 12208 1
11593 12209 1
11594 11595 1
11594 11597 1
11594 12143 1
11594 12208 1
11594 12209 1
11594 12212 1
11595 11596 1
11595 11597 1
11595 11598 1
11596 11597 1
11596 11598 1
11596 11599 1
11596 11601 1
11597 11598 1
11597 12209 1
11597 12212 1
11597 12213 1
11598 11599 1
11598 11601 1
11598 12147 1
11598 12212 1
11598 12213 1
11598 12216 1
11599 11600 1
11599 11601 1
11599 11602 1
11600 11601 1
11600 11602 1
11600 11603 1
11600 11605 1
11601 11602 1
11601 12213 1
11601 12216 1
11601 12217 1
11602 11603 1
11602 11605 1
11602 12151 1
11602 12216 1
11602 12217 1
11602 12220 1
11603 11604 1
11603 11605 1
11603 11606 1
11604 11605 1
11604 11606 1
11604 11607 1
11604 11609 1
11605 11606 1
11605 12217 1
11605 12220 1
11605 12221 1
11606 11607 1
11606 11609 1
11606 12155 1
11606 12220 1
11606 12221 1
11606 12224 1
11607 11608 1
11607 11609 1
11607 11610 1
11608 11609 1
11608 11610 1
11608 11611 1
11608 11613 1
11609 11610 1
11609 12221 1
11609 12224 1
11609 12225 1
11610 11611 1
11610 11613 1
11610 12157 1
11610 12224 1
11610 12225 1
11610 12228 1
11611 11612 1
11611 11613 1
11611 11614 1
11612 11613 1
11612 11614 1
11612 11615 1
11612 11617 1
11613 11614 1
11613 12225 1
11613 12228 1
11613 12229 1
11614 11615 1
11614 11617 1
11614 12159 1
11614 12228 1
11614 12229 1
11614 12232 1
11615 11616 1
11615 11617 1
11615 11618 1
11616 11617 1
11616 11618 1
11616 11619 1
11616 11621 1
11617 11618 1
11617 12229 1
11617 12232 1
11617 12233 1
11618 11619 1
11618 11621 1
11618 12161 1
11618 12232 1
11618 12233 1
11618 12236 1
11619 11620 1
11619 11621 1
11619 11622 1
11620 11621 1
11620 11622 1
11620 11623 1
11620 11625 1
11621 11622 1
11621 12233 1
11621 12236 1
11621 12237 1
11622 11623 1
11622 11625 1
11622 12165 1
11622 12236 1
11622 12237 1
11622 12240 1
11623 11624 1
11623 11625 1
11623 11626 1
11624 11625 1
11624 11626 1
11624 11627 1
11624 11629 1
11625 11626 1
11625 12237 1
11625 12240 1
11625 12241 1
11626 11627 1
11626 11629 1
11626 12169 1
11626 12240 1
11626 12241 1
11626 12244 1
11627 11628 1
11627 11629 1
11627 11630 1
11628 11629 1
11628 11630 1
11628 11631 1
11628 11633 1
11629 11630 1
11629 12241 1
11629 12244 1
11629 12245 1
11630 11631 1
11630 11633 1
11630 12173 1
11630 12244 1
11630 12245 1
11630 12248 1
11631 11632 1
11631 11633 1
11631 11634 1
11632 11633 1
11632 11634 1
11632 11635 1
11632 11637 1
11633 11634 1
11633 12245 1
11633 12248 1
11633 12249 1
11634 11635 1
11634 11637 1
11634 12177 1
11634 12248 1
11634 12249 1
11634 12252 1
11635 11636 1
11635 11637 1
11635 11638 1
11636 11637 1
11636 11638 1
11636 11639 1
11636 11641 1
11637 11638 1
11637 12249 1
11637 12252 1
11637 12253 1
11638 11639 1
11638 11641 1
11638 12181 1
11638 12252 1
11638 12253 1
11638 12256 1
11639 11640 1
11639 11641 1
11639 11642 1
11640 11641 1
11640 11642 1
11640 11643 1
11640 11645 1
11641 11642 1
11641 12253 1
11641 12256 1
11641 12257 1
11642 11643 1
11642 11645 1
11642 12185 1
11642 12256 1
11642 12257 1
11642 12260 1
11643 11644 1
11643 11645 1
11643 11646 1
11644 11645 1
11644 11646 1
11645 11646 1
11645 12257 1
11645 12260 1
11645 12261 1
11646 12189 1
11646 12260 1
11646 12261 1
11647 11648 1
11647 11649 1
11647 11650 1
11648 11649 1
11648 11650 1
11648 11651 1
11648 11653 1
11648 11719 1
11648 11722 1
11648 11723 1
11649 11650 1
11649 11719 1
11649 11722 1
11650 11651 1
11650 11653 1
11651 11652 1
11651 11653 1
11651 11654 1
11652 11653 1
11652 11654 1
11652 11655 1
11652 11657 1
11652 11723 1
11652 11726 1
11652 11727 1
11653 11654 1
11653 11722 1
11653 11723 1
11653 11726 1
11654 11655 1
11654 11657 1
11655 11656 1
11655 11657 1
11655 11658 1
11656 11657 1
11656 11658 1
11656 11659 1
11656 11661 1
11656 11727 1
11656 11730 1
11656 11731 1
11657 11658 1
11657 11726 1
11657 11727 1
11657 11730 1
11658 11659 1
11658 11661 1
11659 11660 1
11659 11661 1
11659 11662 1
11660 11661 1
11660 11662 1
11660 11663 1
11660 11665 1
11660 11731 1
11660 11734 1
11660 11735 1
11661 11662 1
11661 11730 1
11661 11731 1
11661 11734 1
11662 11663 1
11662 11665 1
11663 11664 1
11663 11665 1
11663 11666 1
11664 11665 1
11664 11666 1
11664 11667 1
11664 11669 1
11664 11735 1
11664 11738 1
11664 11739 1
11665 11666 1
11665 11734 1
11665 11735 1
11665 11738 1
11666 11667 1
11666 11669 1
11667 11668 1
11667 11669 1
11667 11670 1
11668 11669 1
11668 11670 1
11668 11671 1
11668 11673 1
11668 11739 1
11668 11742 1
11668 11743 1
11669 11670 1
11669 11738 1
11669 11739 1
11669 11742 1
11670 11671 1
11670 11673 1
11671 11672 1
11671 11673 1
11671 11674 1
11672 11673 1
11672 11674 1
11672 11675 1
11672 11677 1
11672 11743 1
11672 11746 1
11672 11747 1
11673 11674 1
11673 11742 1
11673 11743 1
11673 11746 1
11674 11675 1
11674 11677 1
11675 11676 1
11675 11677 1
11675 11678 1
11676 11677 1
11676 11678 1
11676 11679 1
11676 11681 1
11676 11747 1
11676 11750 1
11676 11751 1
11677 11678 1
11677 11746 1
11677 11747 1
11677 11750 1
11678 11679 1
11678 11681 1
11679 11680 1
11679 11681 1
11679 11682 1
11680 11681 1
11680 11682 1
11680 11683 1
11680 11685 1
11680 11751 1
11680 11753 1
11680 11754 1
11681 11682 1
11681 11750 1
11681 11751 1
11681 11753 1
11682 11683 1
11682 11685 1
11683 11684 1
11683 11685 1
11683 11686 1
11684 11685 1
11684 11686 1
11684 11687 1
11684 11689 1
11684 11754 1
11684 11755 1
11684 11756 1
11685 11686 1
11685 11753 1
11685 11754 1
11685 11755 1
11686 11687 1
11686 11689 1
11687 11688 1
11687 11689 1
11687 11690 1
11688 11689 1
11688 11690 1
11688 11691 1
11688 11693 1
11688 11756 1
11688 11759 1
11688 11760 1
11689 11690 1
11689 11755 1
11689 11756 1
11689 11759 1
11690 11691 1
11690 11693 1
11691 11692 1
11691 11693 1
11691 11694 1
11692 11693 1
11692 11694 1
11692 11695 1
11692 11697 1
11692 11760 1
11692 11763 1
11692 11764 1
11693 11694 1
11693 11759 1
11693 11760 1
11693 11763 1
11694 11695 1
11694 11697 1
11695 11696 1
11695 11697 1
11695 11698 1
11696 11697 1
11696 11698 1
11696 11699 1
11696 11701 1
11696 11764 1
11696 11767 1
11696 11768 1
11697 11698 1
11697 11763 1
11697 11764 1
11697 11767 1
11698 11699 1
11698 11701 1
11699 11700 1
11699 11701 1
11699 11702 1
11700 11701 1
11700 11702 1
11700 11703 1
11700 11705 1
11700 11768 1
11700 11771 1
11700 11772 1
11701 11702 1
11701 11767 1
11701 11768 1
11701 11771 1
11702 11703 1
11702 11705 1
11703 11704 1
11703 11705 1
11703 11706 1
11704 11705 1
11704 11706 1
11704 11707 1
11704 11709 1
11704 11772 1
11704 11775 1
11704 11776 1
11705 11706 1
11705 11771 1
11705 11772 1
11705 11775 1
11706 11707 1
11706 11709 1
11707 11708 1
11707 11709 1
11707 11710 1
11708 11709 1
11708 11710 1
11708 11711 1
11708 11713 1
11708 11776 1
11708 11779 1
11708 11780 1
11709 11710 1
11709 11775 1
11709 11776 1
11709 11779 1
11710 11711 1
11710 11713 1
11711 11712 1
11711 11713 1
11711 11714 1
11712 11713 1
11712 11714 1
11712 11715 1
11712 11717 1
11712 11780 1
11712 11783 1
11712 11784 1
11713 11714 1
11713 11779 1
11713 11780 1
11713 11783 1
11714 11715 1
11714 11717 1
11715 11716 1
11715 11717 1
11715 11718 1
11716 11717 1
11716 11718 1
11716 11784 1
11716 11787 1
11717 11718 1
11717 11783 1
11717 11784 1
11717 11787 1
11719 11720 1
11719 11721 1
11719 11722 1
11720 11721 1
11720 11722 1
11720 11723 1
11720 11725 1
11720 11788 1
11720 11791 1
11720 11792 1
11721 11722 1
11721 11788 1
11721 11791 1
11722 11723 1
11722 11725 1
11723 11724 1
11723 11725 1
11723 11726 1
11724 11725 1
11724 11726 1
11724 11727 1
11724 11729 1
11724 11792 1
11724 11795 1
11724 11796 1
11725 11726 1
11725 11791 1
11725 11792 1
11725 11795 1
11726 11727 1
11726 11729 1
11727 11728 1
11727 11729 1
11727 11730 1
11728 11729 1
11728 11730 1
11728 11731 1
11728 11733 1
11728 11796 1
11728 11799 1
11728 11800 1
11729 11730 1
11729 11795 1
11729 11796 1
11729 11799 1
11730 11731 1
11730 11733 1
11731 11732 1
11731 11733 1
11731 11734 1
11732 11733 1
11732 11734 1
11732 11735 1
11732 11737 1
11732 11800 1
11732 11803 1
11732 11804 1
11733 11734 1
11733 11799 1
11733 11800 1
11733 11803 1
11734 11735 1
11734 11737 1
11735 11736 1
11735 11737 1
11735 11738 1
11736 11737 1
11736 11738 1
11736 11739 1
11736 11741 1
11736 11804 1
11736 11807 1
11736 11808 1
11737 11738 1
11737 11803 1
11737 11804 1
11737 11807 1
11738 11739 1
11738 11741 1
11739 11740 1
11739 11741 1
11739 11742 1
11740 11741 1
11740 11742 1
11740 11743 1
11740 11745 1
11740 11808 1
11740 11810 1
11740 11811 1
11741 11742 1
11741 11807 1
11741 11808 1
11741 11810 1
11742 11743 1
11742 11745 1
11743 11744 1
11743 11745 1
11743 11746 1
11744 11745 1
11744 11746 1
11744 11747 1
11744 11749 1
11744 11811 1
11745 11746 1
11745 11810 1
11745 11811 1
11746 11747 1
11746 11749 1
11747 11748 1
11747 11749 1
11747 11750 1
11748 11749 1
11748 11750 1
11748 11751 1
11748 11752 1
11749 11750 1
11750 11751 1
11750 11752 1
11751 11752 1
11751 11753 1
11752 11753 1
11753 11754 1
11754 11755 1
11755 11756 1
11755 11758 1
11756 11757 1
11756 11758 1
11756 11759 1
11757 11758 1
11757 11759 1
11757 11760 1
11757 11762 1
11758 11759 1
11759 11760 1
11759 11762 1
11760 11761 1
11760 11762 1
11760 11763 1
11761 11762 1
11761 11763 1
11761 11764 1
11761 11766 1
11761 11812 1
11762 11763 1
11763 11764 1
11763 11766 1
11764 11765 1
11764 11766 1
11764 11767 1
11765 11766 1
11765 11767 1
11765 11768 1
11765 11770 1
11765 11812 1
11765 11813 1
11765 11814 1
11766 11767 1
11766 11812 1
11766 11813 1
11767 11768 1
11767 11770 1
11768 11769 1
11768 11770 1
11768 11771 1
11769 11770 1
11769 11771 1
11769 11772 1
11769 11774 1
11769 11814 1
11769 11817 1
11769 11818 1
11770 11771 1
11770 11813 1
11770 11814 1
11770 11817 1
11771 11772 1
11771 11774 1
11772 11773 1
11772 11774 1
11772 11775 1
11773 11774 1
11773 11775 1
11773 11776 1
11773 11778 1
11773 11818 1
11773 11821 1
11773 11822 1
11774 11775 1
11774 11817 1
11774 11818 1
11774 11821 1
11775 11776 1
11775 11778 1
11776 11777 1
11776 11778 1
11776 11779 1
11777 11778 1
11777 11779 1
11777 11780 1
11777 11782 1
11777 11822 1
11777 11825 1
11777 11826 1
11778 11779 1
11778 11821 1
11778 11822 1
11778 11825 1
11779 11780 1
11779 11782 1
11780 11781 1
11780 11782 1
11780 11783 1
11781 11782 1
11781 11783 1
11781 11784 1
11781 11786 1
11781 11826 1
11781 11829 1
11781 11830 1
11782 11783 1
11782 11825 1
11782 11826 1
11782 11829 1
11783 11784 1
11783 11786 1
11784 11785 1
11784 11786 1
11784 11787 1
11785 11786 1
11785 11787 1
11785 11830 1
11785 11833 1
11786 11787 1
11786 11829 1
11786 11830 1
11786 11833 1
11788 11789 1
11788 11790 1
11788 11791 1
11789 11790 1
11789 11791 1
11789 11792 1
11789 11794 1
11789 11834 1
11789 11837 1
11789 11838 1
11790 11791 1
11790 11834 1
11790 11837 1
11791 11792 1
11791 11794 1
11792 11793 1
11792 11794 1
11792 11795 1
11793 11794 1
11793 11795 1
11793 11796 1
11793 11798 1
11793 11838 1
11793 11841 1
11793 11842 1
11794 11795 1
11794 11837 1
11794 11838 1
11794 11841 1
11795 11796 1
11795 11798 1
11796 11797 1
11796 11798 1
11796 11799 1
11797 11798 1
11797 11799 1
11797 11800 1
11797 11802 1
11797 11842 1
11797 11845 1
11797 11846 1
11798 11799 1
11798 11841 1
11798 11842 1
11798 11845 1
11799 11800 1
11799 11802 1
11800 11801 1
11800 11802 1
11800 11803 1
11801 11802 1
11801 11803 1
11801 11804 1
11801 11806 1
11801 11846 1
11801 11849 1
11801 11850 1
11802 11803 1
11802 11845 1
11802 11846 1
11802 11849 1
11803 11804 1
11803 11806 1
11804 11805 1
11804 11806 1
11804 11807 1
11805 11806 1
11805 11807 1
11805 11808 1
11805 11809 1
11805 11850 1
11806 11807 1
11806 11849 1
11806 11850 1
11807 11808 1
11807 11809 1
11808 11809 1
11808 11810 1
11809 11810 1
11810 11811 1
11812 11813 1
11813 11814 1
11813 11816 1
11814 11815 1
11814 11816 1
11814 11817 1
11815 11816 1
11815 11817 1
11815 11818 1
11815 11820 1
11815 11851 1
11815 11852 1
11816 11817 1
11816 11851 1
11817 11818 1
11817 11820 1
11818 11819 1
11818 11820 1
11818 11821 1
11819 11820 1
11819 11821 1
11819 11822 1
11819 11824 1
11819 11852 1
11819 11855 1
11819 11856 1
11820 11821 1
11820 11851 1
11820 11852 1
11820 11855 1
11821 11822 1
11821 11824 1
11822 11823 1
11822 11824 1
11822 11825 1
11823 11824 1
11823 11825 1
11823 11826 1
11823 11828 1
11823 11856 1
11823 11859 1
11823 11860 1
11824 11825 1
11824 11855 1
11824 11856 1
11824 11859 1
11825 11826 1
11825 11828 1
11826 11827 1
11826 11828 1
11826 11829 1
11827 11828 1
11827 11829 1
11827 11830 1
11827 11832 1
11827 11860 1
11827 11863 1
11827 11864 1
11828 11829 1
11828 11859 1
11828 11860 1
11828 11863 1
11829 11830 1
11829 11832 1
11830 11831 1
11830 11832 1
11830 11833 1
11831 11832 1
11831 11833 1
11831 11864 1
11831 11867 1
11832 11833 1
11832 11863 1
11832 11864 1
11832 11867 1
11834 11835 1
11834 11836 1
11834 11837 1
11835 11836 1
11835 11837 1
11835 11838 1
11835 11840 1
11835 11868 1
11835 11871 1
11835 11872 1
11836 11837 1
11836 11868 1
11836 11871 1
11837 11838 1
11837 11840 1
11838 11839 1
11838 11840 1
11838 11841 1
11839 11840 1
11839 11841 1
11839 11842 1
11839 11844 1
11839 11872 1
11839 11875 1
11839 11876 1
11840 11841 1
11840 11871 1
11840 11872 1
11840 11875 1
11841 11842 1
11841 11844 1
11842 11843 1
11842 11844 1
11842 11845 1
11843 11844 1
11843 11845 1
11843 11846 1
11843 11848 1
11843 11876 1
11843 11879 1
11843 11880 1
11844 11845 1
11844 11875 1
11844 11876 1
11844 11879 1
11845 11846 1
11845 11848 1
11846 11847 1
11846 11848 1
11846 11849 1
11847 11848 1
11847 11849 1
11847 11850 1
11847 11880 1
11848 11849 1
11848 11879 1
11848 11880 1
11849 11850 1
11851 11852 1
11851 11854 1
11852 11853 1
11852 11854 1
11852 11855 1
11853 11854 1
11853 11855 1
11853 11856 1
11853 11858 1
11853 11881 1
11853 11882 1
11854 11855 1
11854 11881 1
11855 11856 1
11855 11858 1
11856 11857 1
11856 11858 1
11856 11859 1
11857 11858 1
11857 11859 1
11857 11860 1
11857 11862 1
11857 11882 1
11857 11885 1
11857 11886 1
11858 11859 1
11858 11881 1
11858 11882 1
11858 11885 1
11859 11860 1
11859 11862 1
11860 11861 1
11860 11862 1
11860 11863 1
11861 11862 1
11861 11863 1
11861 11864 1
11861 11866 1
11861 11886 1
11861 11889 1
11861 11890 1
11862 11863 1
11862 11885 1
11862 11886 1
11862 11889 1
11863 11864 1
11863 11866 1
11864 11865 1
11864 11866 1
11864 11867 1
11865 11866 1
11865 11867 1
11865 11890 1
11865 11893 1
11866 11867 1
11866 11889 1
11866 11890 1
11866 11893 1
11868 11869 1
11868 11870 1
11868 11871 1
11869 11870 1
11869 11871 1
11869 11872 1
11869 11874 1
11869 11894 1
11869 11897 1
11869 11898 1
11870 11871 1
11870 11894 1
11870 11897 1
11871 11872 1
11871 11874 1
11872 11873 1
11872 11874 1
11872 11875 1
11873 11874 1
11873 11875 1
11873 11876 1
11873 11878 1
11873 11898 1
11873 11901 1
11873 11902 1
11874 11875 1
11874 11897 1
11874 11898 1
11874 11901 1
11875 11876 1
11875 11878 1
11876 11877 1
11876 11878 1
11876 11879 1
11877 11878 1
11877 11879 1
11877 11880 1
11877 11902 1
11877 11904 1
11878 11879 1
11878 11901 1
11878 11902 1
11878 11904 1
11879 11880 1
11881 11882 1
11881 11884 1
11882 11883 1
11882 11884 1
11882 11885 1
11883 11884 1
11883 11885 1
11883 11886 1
11883 11888 1
11883 11906 1
11883 11907 1
11884 11885 1
11884 11906 1
11885 11886 1
11885 11888 1
11886 11887 1
11886 11888 1
11886 11889 1
11887 11888 1
11887 11889 1
11887 11890 1
11887 11892 1
11887 11907 1
11887 11910 1
11887 11911 1
11888 11889 1
11888 11906 1
11888 11907 1
11888 11910 1
11889 11890 1
11889 11892 1
11890 11891 1
11890 11892 1
11890 11893 1
11891 11892 1
11891 11893 1
11891 11911 1
11891 11914 1
11892 11893 1
11892 11910 1
11892 11911 1
11892 11914 1
11894 11895 1
11894 11896 1
11894 11897 1
11895 11896 1
11895 11897 1
11895 11898 1
11895 11900 1
11895 11915 1
11895 11918 1
11895 11919 1
11896 11897 1
11896 11915 1
11896 11918 1
11897 11898 1
11897 11900 1
11898 11899 1
11898 11900 1
11898 11901 1
11899 11900 1
11899 11901 1
11899 11902 1
11899 11903 1
11899 11919 1
11899 11922 1
11899 11923 1
11900 11901 1
11900 11918 1
11900 11919 1
11900 11922 1
11901 11902 1
11901 11903 1
11902 11903 1
11902 11904 1
11903 11904 1
11903 11922 1
11903 11923 1
11905 11906 1
11905 11907 1
11905 11909 1
11905 11924 1
11906 11907 1
11906 11909 1
11907 11908 1
11907 11909 1
11907 11910 1
11908 11909 1
11908 11910 1
11908 11911 1
11908 11913 1
11908 11924 1
11908 11927 1
11908 11928 1
11909 11910 1
11909 11924 1
11909 11927 1
11910 11911 1
11910 11913 1
11911 11912 1
11911 11913 1
11911 11914 1
11912 11913 1
11912 11914 1
11912 11928 1
11912 11931 1
11913 11914 1
11913 11927 1
11913 11928 1
11913 11931 1
11915 11916 1
11915 11917 1
11915 11918 1
11916 11917 1
11916 11918 1
11916 11919 1
11916 11921 1
11916 11932 1
11916 11935 1
11916 11936 1
11917 11918 1
11917 11932 1
11917 11935 1
11918 11919 1
11918 11921 1
11919 11920 1
11919 11921 1
11919 11922 1
11920 11921 1
11920 11922 1
11920 11923 1
11920 11936 1
11920 11939 1
11921 11922 1
11921 11935 1
11921 11936 1
11921 11939 1
11922 11923 1
11924 11925 1
11924 11926 1
11924 11927 1
11925 11926 1
11925 11927 1
11925 11928 1
11925 11930 1
11925 11940 1
11925 11942 1
11925 11943 1
11926 11927 1
11926 11940 1
11926 11942 1
11927 11928 1
11927 11930 1
11928 11929 1
11928 11930 1
11928 11931 1
11929 11930 1
11929 11931 1
11929 11943 1
11929 11946 1
11930 11931 1
11930 11942 1
11930 11943 1
11930 11946 1
11932 11933 1
11932 11934 1
11932 11935 1
11933 11934 1
11933 11935 1
11933 11936 1
11933 11938 1
11933 11947 1
11933 11950 1
11933 11951 1
11934 11935 1
11934 11947 1
11934 11950 1
11935 11936 1
11935 11938 1
11936 11937 1
11936 11938 1
11936 11939 1
11937 11938 1
11937 11939 1
11937 11951 1
11937 11953 1
11938 11939 1
11938 11950 1
11938 11951 1
11938 11953 1
11940 11941 1
11940 11942 1
11941 11942 1
11941 11943 1
11941 11945 1
11941 11955 1
11941 11956 1
11942 11943 1
11942 11945 1
11943 11944 1
11943 11945 1
11943 11946 1
11944 11945 1
11944 11946 1
11944 11956 1
11944 11959 1
11945 11946 1
11945 11955 1
11945 11956 1
11945 11959 1
11947 11948 1
11947 11949 1
11947 11950 1
11948 11949 1
11948 11950 1
11948 11951 1
11948 11952 1
11948 11960 1
11948 11963 1
11948 11964 1
11949 11950 1
11949 11960 1
11949 11963 1
11950 11951 1
11950 11952 1
11951 11952 1
11951 11953 1
11952 11953 1
11952 11963 1
11952 11964 1
11954 11955 1
11954 11956 1
11954 11958 1
11954 11967 1
11954 11968 1
11955 11956 1
11955 11958 1
11956 11957 1
11956 11958 1
11956 11959 1
11957 11958 1
11957 11959 1
11957 11968 1
11957 11971 1
11958 11959 1
11958 11967 1
11958 11968 1
11958 11971 1
11960 11961 1
11960 11962 1
11960 11963 1
11961 11962 1
11961 11963 1
11961 11964 1
11961 11965 1
11961 11972 1
11961 11975 1
11961 11976 1
11962 11963 1
11962 11972 1
11962 11975 1
11963 11964 1
11963 11965 1
11964 11965 1
11965 11975 1
11965 11976 1
11965 11979 1
11966 11967 1
11966 11968 1
11966 11970 1
11966 11982 1
11966 11983 1
11967 11968 1
11967 11970 1
11968 11969 1
11968 11970 1
11968 11971 1
11969 11970 1
11969 11971 1
11969 11983 1
11969 11986 1
11970 11971 1
11970 11982 1
11970 11983 1
11970 11986 1
11972 11973 1
11972 11974 1
11972 11975 1
11973 11974 1
11973 11975 1
11973 11976 1
11973 11978 1
11973 11987 1
11973 11990 1
11973 11991 1
11974 11975 1
11974 11987 1
11974 11990 1
11975 11976 1
11975 11978 1
11976 11977 1
11976 11978 1
11976 11979 1
11977 11978 1
11977 11979 1
11977 11991 1
11977 11994 1
11978 11979 1
11978 11990 1
11978 11991 1
11978 11994 1
11980 11981 1
11980 11982 1
11980 11983 1
11980 11985 1
11980 11995 1
11980 11998 1
11980 11999 1
11981 11982 1
11981 11995 1
11981 11998 1
11982 11983 1
11982 11985 1
11983 11984 1
11983 11985 1
11983 11986 1
11984 11985 1
11984 11986 1
11984 11999 1
11984 12002 1
11985 11986 1
11985 11998 1
11985 11999 1
11985 12002 1
11987 11988 1
11987 11989 1
11987 11990 1
11988 11989 1
11988 11990 1
11988 11991 1
11988 11993 1
11988 12003 1
11988 12006 1
11988 12007 1
11989 11990 1
11989 12003 1
11989 12006 1
11990 11991 1
11990 11993 1
11991 11992 1
11991 11993 1
11991 11994 1
11992 11993 1
11992 11994 1
11992 12007 1
11992 12010 1
11992 12011 1
11993 11994 1
11993 12006 1
11993 12007 1
11993 12010 1
11995 11996 1
11995 11997 1
11995 11998 1
11996 11997 1
11996 11998 1
11996 11999 1
11996 12001 1
11996 12015 1
11996 12018 1
11996 12019 1
11997 11998 1
11997 12014 1
11997 12015 1
11997 12018 1
11998 11999 1
11998 12001 1
11999 12000 1
11999 12001 1
11999 12002 1
12000 12001 1
12000 12002 1
12000 12019 1
12000 12022 1
12001 12002 1
12001 12018 1
12001 12019 1
12001 12022 1
12003 12004 1
12003 12005 1
12003 12006 1
12004 12005 1
12004 12006 1
12004 12007 1
12004 12009 1
12004 12023 1
12004 12026 1
12004 12027 1
12005 12006 1
12005 12023 1
12005 12026 1
12006 12007 1
12006 12009 1
12007 12008 1
12007 12009 1
12007 12010 1
12008 12009 1
12008 12010 1
12008 12011 1
12008 12012 1
12008 12027 1
12008 12030 1
12008 12031 1
12009 12010 1
12009 12026 1
12009 12027 1
12009 12030 1
12010 12011 1
12010 12012 1
12011 12012 1
12012 12030 1
12012 12031 1
12012 12034 1
12013 12014 1
12013 12015 1
12013 12017 1
12013 12037 1
12013 12040 1
12013 12041 1
12014 12015 1
12014 12017 1
12015 12016 1
12015 12017 1
12015 12018 1
12016 12017 1
12016 12018 1
12016 12019 1
12016 12021 1
12016 12041 1
12016 12044 1
12016 12045 1
12017 12018 1
12017 12040 1
12017 12041 1
12017 12044 1
12018 12019 1
12018 12021 1
12019 12020 1
12019 12021 1
12019 12022 1
12020 12021 1
12020 12022 1
12020 12045 1
12020 12048 1
12021 12022 1
12021 12044 1
12021 12045 1
12021 12048 1
12023 12024 1
12023 12025 1
12023 12026 1
12024 12025 1
12024 12026 1
12024 12027 1
12024 12029 1
12024 12049 1
12024 12052 1
12024 12053 1
12025 12026 1
12025 12049 1
12025 12052 1
12026 12027 1
12026 12029 1
12027 12028 1
12027 12029 1
12027 12030 1
12028 12029 1
12028 12030 1
12028 12031 1
12028 12033 1
12028 12053 1
12028 12056 1
12028 12057 1
12029 12030 1
12029 12052 1
12029 12053 1
12029 12056 1
12030 12031 1
12030 12033 1
12031 12032 1
12031 12033 1
12031 12034 1
12032 12033 1
12032 12034 1
12032 12035 1
12032 12057 1
12032 12060 1
12032 12061 1
12033 12034 1
12033 12056 1
12033 12057 1
12033 12060 1
12034 12035 1
12035 12060 1
12035 12061 1
12035 12064 1
12036 12037 1
12036 12039 1
12036 12069 1
12036 12070 1
12037 12038 1
12037 12039 1
12037 12040 1
12038 12039 1
12038 12040 1
12038 12041 1
12038 12043 1
12038 12070 1
12038 12073 1
12038 12074 1
12039 12040 1
12039 12069 1
12039 12070 1
12039 12073 1
12040 12041 1
12040 12043 1
12041 12042 1
12041 12043 1
12041 12044 1
12042 12043 1
12042 12044 1
12042 12045 1
12042 12047 1
12042 12074 1
12042 12077 1
12042 12078 1
12043 12044 1
12043 12073 1
12043 12074 1
12043 12077 1
12044 12045 1
12044 12047 1
12045 12046 1
12045 12047 1
12045 12048 1
12046 12047 1
12046 12048 1
12046 12078 1
12046 12081 1
12047 12048 1
12047 12077 1
12047 12078 1
12047 12081 1
12049 12050 1
12049 12051 1
12049 12052 1
12050 12051 1
12050 12052 1
12050 12053 1
12050 12055 1
12050 12082 1
12050 12085 1
12050 12086 1
12051 12052 1
12051 12082 1
12051 12085 1
12052 12053 1
12052 12055 1
12053 12054 1
12053 12055 1
12053 12056 1
12054 12055 1
12054 12056 1
12054 12057 1
12054 12059 1
12054 12086 1
12054 12089 1
12054 12090 1
12055 12056 1
12055 12085 1
12055 12086 1
12055 12089 1
12056 12057 1
12056 12059 1
12057 12058 1
12057 12059 1
12057 12060 1
12058 12059 1
12058 12060 1
12058 12061 1
12058 12063 1
12058 12090 1
12058 12093 1
12058 12094 1
12059 12060 1
12059 12089 1
12059 12090 1
12059 12093 1
12060 12061 1
12060 12063 1
12061 12062 1
12061 12063 1
12061 12064 1
12062 12063 1
12062 12064 1
12062 12065 1
12062 12094 1
12062 12097 1
12062 12098 1
12063 12064 1
12063 12093 1
12063 12094 1
12063 12097 1
12064 12065 1
12065 12097 1
12065 12098 1
12065 12101 1
12066 12068 1
12066 12106 1
12066 12109 1
12066 12110 1
12067 12068 1
12067 12069 1
12067 12070 1
12067 12072 1
12067 12110 1
12067 12113 1
12067 12114 1
12068 12069 1
12068 12109 1
12068 12110 1
12068 12113 1
12069 12070 1
12069 12072 1
12070 12071 1
12070 12072 1
12070 12073 1
12071 12072 1
12071 12073 1
12071 12074 1
12071 12076 1
12071 12114 1
12071 12117 1
12071 12118 1
12072 12073 1
12072 12113 1
12072 12114 1
12072 12117 1
12073 12074 1
12073 12076 1
12074 12075 1
12074 12076 1
12074 12077 1
12075 12076 1
12075 12077 1
12075 12078 1
12075 12080 1
12075 12118 1
12075 12121 1
12075 12122 1
12076 12077 1
12076 12117 1
12076 12118 1
12076 12121 1
12077 12078 1
12077 12080 1
12078 12079 1
12078 12080 1
12078 12081 1
12079 12080 1
12079 12081 1
12079 12122 1
12079 12125 1
12080 12081 1
12080 12121 1
12080 12122 1
12080 12125 1
12082 12083 1
12082 12084 1
12082 12085 1
12083 12084 1
12083 12085 1
12083 12086 1
12083 12088 1
12083 12126 1
12083 12129 1
12083 12130 1
12084 12085 1
12084 12126 1
12084 12129 1
12085 12086 1
12085 12088 1
12086 12087 1
12086 12088 1
12086 12089 1
12087 12088 1
12087 12089 1
12087 12090 1
12087 12092 1
12087 12130 1
12087 12133 1
12087 12134 1
12088 12089 1
12088 12129 1
12088 12130 1
12088 12133 1
12089 12090 1
12089 12092 1
12090 12091 1
12090 12092 1
12090 12093 1
12091 12092 1
12091 12093 1
12091 12094 1
12091 12096 1
12091 12134 1
12091 12137 1
12091 12138 1
12092 12093 1
12092 12133 1
12092 12134 1
12092 12137 1
12093 12094 1
12093 12096 1
12094 12095 1
12094 12096 1
12094 12097 1
12095 12096 1
12095 12097 1
12095 12098 1
12095 12100 1
12095 12138 1
12095 12141 1
12095 12142 1
12096 12097 1
12096 12137 1
12096 12138 1
12096 12141 1
12097 12098 1
12097 12100 1
12098 12099 1
12098 12100 1
12098 12101 1
12099 12100 1
12099 12101 1
12099 12103 1
12099 12142 1
12099 12145 1
12099 12146 1
12100 12101 1
12100 12141 1
12100 12142 1
12100 12145 1
12101 12103 1
12102 12103 1
12102 12146 1
12102 12149 1
12102 12150 1
12103 12145 1
12103 12146 1
12103 12149 1
12104 12105 1
12104 12106 1
12104 12108 1
12104 12168 1
12104 12171 1
12104 12172 1
12105 12167 1
12105 12168 1
12105 12171 1
12106 12107 1
12106 12108 1
12106 12109 1
12107 12108 1
12107 12109 1
12107 12110 1
12107 12112 1
12107 12172 1
12107 12175 1
12107 12176 1
12108 12109 1
12108 12171 1
12108 12172 1
12108 12175 1
12109 12110 1
12109 12112 1
12110 12111 1
12110 12112 1
12110 12113 1
12111 12112 1
12111 12113 1
12111 12114 1
12111 12116 1
12111 12176 1
12111 12179 1
12111 12180 1
12112 12113 1
12112 12175 1
12112 12176 1
12112 12179 1
12113 12114 1
12113 12116 1
12114 12115 1
12114 12116 1
12114 12117 1
12115 12116 1
12115 12117 1
12115 12118 1
12115 12120 1
12115 12180 1
12115 12183 1
12115 12184 1
12116 12117 1
12116 12179 1
12116 12180 1
12116 12183 1
12117 12118 1
12117 12120 1
12118 12119 1
12118 12120 1
12118 12121 1
12119 12120 1
12119 12121 1
12119 12122 1
12119 12124 1
12119 12184 1
12119 12187 1
12119 12188 1
12120 12121 1
12120 12183 1
12120 12184 1
12120 12187 1
12121 12122 1
12121 12124 1
12122 12123 1
12122 12124 1
12122 12125 1
12123 12124 1
12123 12125 1
12123 12188 1
12123 12191 1
12124 12125 1
12124 12187 1
12124 12188 1
12124 12191 1
12126 12127 1
12126 12128 1
12126 12129 1
12127 12128 1
12127 12129 1
12127 12130 1
12127 12132 1
12127 12192 1
12127 12195 1
12127 12196 1
12128 12129 1
12128 12192 1
12128 12195 1
12129 12130 1
12129 12132 1
12130 12131 1
12130 12132 1
12130 12133 1
12131 12132 1
12131 12133 1
12131 12134 1
12131 12136 1
12131 12196 1
12131 12199 1
12131 12200 1
12132 12133 1
12132 12195 1
12132 12196 1
12132 12199 1
12133 12134 1
12133 12136 1
12134 12135 1
12134 12136 1
12134 12137 1
12135 12136 1
12135 12137 1
12135 12138 1
12135 12140 1
12135 12200 1
12135 12203 1
12135 12204 1
12136 12137 1
12136 12199 1
12136 12200 1
12136 12203 1
12137 12138 1
12137 12140 1
12138 12139 1
12138 12140 1
12138 12141 1
12139 12140 1
12139 12141 1
12139 12142 1
12139 12144 1
12139 12204 1
12139 12207 1
12139 12208 1
12140 12141 1
12140 12203 1
12140 12204 1
12140 12207 1
12141 12142 1
12141 12144 1
12142 12143 1
12142 12144 1
12142 12145 1
12143 12144 1
12143 12145 1
12143 12146 1
12143 12148 1
12143 12208 1
12143 12211 1
12143 12212 1
12144 12145 1
12144 12207 1
12144 12208 1
12144 12211 1
12145 12146 1
12145 12148 1
12146 12147 1
12146 12148 1
12146 12149 1
12147 12148 1
12147 12149 1
12147 12150 1
12147 12152 1
12147 12212 1
12147 12215 1
12147 12216 1
12148 12149 1
12148 12211 1
12148 12212 1
12148 12215 1
12149 12150 1
12149 12152 1
12150 12151 1
12150 12152 1
12150 12153 1
12151 12152 1
12151 12153 1
12151 12154 1
12151 12156 1
12151 12216 1
12151 12219 1
12151 12220 1
12152 12153 1
12152 12215 1
12152 12216 1
12152 12219 1
12153 12154 1
12153 12156 1
12154 12155 1
12154 12156 1
12155 12156 1
12155 12158 1
12155 12220 1
12155 12223 1
12155 12224 1
12156 12219 1
12156 12220 1
12156 12223 1
12157 12158 1
12157 12160 1
12157 12224 1
12157 12227 1
12157 12228 1
12158 12223 1
12158 12224 1
12158 12227 1
12159 12160 1
12159 12162 1
12159 12228 1
12159 12231 1
12159 12232 1
12160 12227 1
12160 12228 1
12160 12231 1
12161 12162 1
12161 12163 1
12161 12164 1
12161 12166 1
12161 12232 1
12161 12235 1
12161 12236 1
12162 12163 1
12162 12231 1
12162 12232 1
12162 12235 1
12163 12164 1
12163 12166 1
12164 12165 1
12164 12166 1
12164 12167 1
12165 12166 1
12165 12167 1
12165 12168 1
12165 12170 1
12165 12236 1
12165 12239 1
12165 12240 1
12166 12167 1
12166 12235 1
12166 12236 1
12166 12239 1
12167 12168 1
12167 12170 1
12168 12169 1
12168 12170 1
12168 12171 1
12169 12170 1
12169 12171 1
12169 12172 1
12169 12174 1
12169 12240 1
12169 12243 1
12169 12244 1
12170 12171 1
12170 12239 1
12170 12240 1
12170 12243 1
12171 12172 1
12171 12174 1
12172 12173 1
12172 12174 1
12172 12175 1
12173 12174 1
12173 12175 1
12173 12176 1
12173 12178 1
12173 12244 1
12173 12247 1
12173 12248 1
12174 12175 1
12174 12243 1
12174 12244 1
12174 12247 1
12175 12176 1
12175 12178 1
12176 12177 1
12176 12178 1
12176 12179 1
12177 12178 1
12177 12179 1
12177 12180 1
12177 12182 1
12177 12248 1
12177 12251 1
12177 12252 1
12178 12179 1
12178 12247 1
12178 12248 1
12178 12251 1
12179 12180 1
12179 12182 1
12180 12181 1
12180 12182 1
12180 12183 1
12181 12182 1
12181 12183 1
12181 12184 1
12181 12186 1
12181 12252 1
12181 12255 1
12181 12256 1
12182 12183 1
12182 12251 1
12182 12252 1
12182 12255 1
12183 12184 1
12183 12186 1
12184 12185 1
12184 12186 1
12184 12187 1
12185 12186 1
12185 12187 1
12185 12188 1
12185 12190 1
12185 12256 1
12185 12259 1
12185 12260 1
12186 12187 1
12186 12255 1
12186 12256 1
12186 12259 1
12187 12188 1
12187 12190 1
12188 12189 1
12188 12190 1
12188 12191 1
12189 12190 1
12189 12191 1
12189 12260 1
12189 12263 1
12190 12191 1
12190 12259 1
12190 12260 1
12190 12263 1
12192 12193 1
12192 12194 1
12192 12195 1
12193 12194 1
12193 12195 1
12193 12196 1
12193 12198 1
12194 12195 1
12195 12196 1
12195 12198 1
12196 12197 1
12196 12198 1
12196 12199 1
12197 12198 1
12197 12199 1
12197 12200 1
12197 12202 1
12198 12199 1
12199 12200 1
12199 12202 1
12200 12201 1
12200 12202 1
12200 12203 1
12201 12202 1
12201 12203 1
12201 12204 1
12201 12206 1
12202 12203 1
12203 12204 1
12203 12206 1
12204 12205 1
12204 12206 1
12204 12207 1
12205 12206 1
12205 12207 1
12205 12208 1
12205 12210 1
12206 12207 1
12207 12208 1
12207 12210 1
12208 12209 1
12208 12210 1
12208 12211 1
12209 12210 1
12209 12211 1
12209 12212 1
12209 12214 1
12210 12211 1
12211 12212 1
12211 12214 1
12212 12213 1
12212 12214 1
12212 12215 1
12213 12214 1
12213 12215 1
12213 12216 1
12213 12218 1
12214 12215 1
12215 12216 1
12215 12218 1
12216 12217 1
12216 12218 1
12216 12219 1
12217 12218 1
12217 12219 1
12217 12220 1
12217 12222 1
12218 12219 1
12219 12220 1
12219 12222 1
12220 12221 1
12220 12222 1
12220 12223 1
12221 12222 1
12221 12223 1
12221 12224 1
12221 12226 1
12222 12223 1
12223 12224 1
12223 12226 1
12224 12225 1
12224 12226 1
12224 12227 1
12225 12226 1
12225 12227 1
12225 12228 1
12225 12230 1
12226 12227 1
12227 12228 1
12227 12230 1
12228 12229 1
12228 12230 1
12228 12231 1
12229 12230 1
12229 12231 1
12229 12232 1
12229 12234 1
12230 12231 1
12231 12232 1
12231 12234 1
12232 12233 1
12232 12234 1
12232 12235 1
12233 12234 1
12233 12235 1
12233 12236 1
12233 12238 1
12234 12235 1
12235 12236 1
12235 12238 1
12236 12237 1
12236 12238 1
12236 12239 1
12237 12238 1
12237 12239 1
12237 12240 1
12237 12242 1
12238 12239 1
12239 12240 1
12239 12242 1
12240 12241 1
12240 12242 1
12240 12243 1
12241 12242 1
12241 12243 1
12241 12244 1
12241 12246 1
12242 12243 1
12243 12244 1
12243 12246 1
12244 12245 1
12244 12246 1
12244 12247 1
12245 12246 1
12245 12247 1
12245 12248 1
12245 12250 1
12246 12247 1
12247 12248 1
12247 12250 1
12248 12249 1
12248 12250 1
12248 12251 1
12249 12250 1
12249 12251 1
12249 12252 1
12249 12254 1
12250 12251 1
12251 12252 1
12251 12254 1
12252 12253 1
12252 12254 1
12252 12255 1
12253 12254 1
12253 12255 1
12253 12256 1
12253 12258 1
12254 12255 1
12255 12256 1
12255 12258 1
12256 12257 1
12256 12258 1
12256 12259 1
12257 12258 1
12257 12259 1
12257 12260 1
12257 12262 1
12258 12259 1
12259 12260 1
12259 12262 1
12260 12261 1
12260 12262 1
12260 12263 1
12261 12262 1
12261 12263 1
12262 12263 1
;sub-graft
1 1465 1
7 3316 1
13 5167 1
19 7018 1
25 8869 1
31 10720 1
37 908 1
43 2759 1
49 4610 1
55 6461 1
61 8312 1
67 10163 1
73 1577 1
79 3428 1
85 5279 1
91 7130 1
97 8981 1
103 10832 1
109 1675 1
115 3526 1
121 5377 1
127 7228 1
133 9079 1
139 10930 1
145 1666 1
151 3517 1
157 5368 1
163 7219 1
169 9070 1
175 10921 1
181 997 1
187 2848 1
193 4699 1
199 6550 1
205 8401 1
211 10252 1
217 928 1
223 2779 1
229 4630 1
235 6481 1
241 8332 1
247 10183 1
253 1488 1
259 3339 1
265 5190 1
271 7041 1
277 8892 1
283 10743 1
289 1448 1
295 3299 1
301 5150 1
307 7001 1
313 8852 1
319 10703 1
325 1388 1
331 3239 1
337 5090 1
343 6941 1
349 8792 1
355 10643 1
361 1319 1
367 3170 1
373 5021 1
379 6872 1
385 8723 1
391 10574 1
397 1262 1
403 3113 1
409 4964 1
415 6815 1
421 8666 1
427 10517 1
433 656 1
439 2507 1
445 4358 1
451 6209 1
457 8060 1
463 9911 1
469 1363 1
475 3214 1
481 5065 1
487 6916 1
493 8767 1
499 10618 1
505 1416 1
511 3267 1
517 5118 1
523 6969 1
529 8820 1
535 10671 1

[ angles ]
1 2 3 2
2 3 4 2
3 4 5 2
4 5 6 2
7 8 9 2
8 9 10 2
9 10 11 2
10 11 12 2
13 14 15 2
14 15 16 2
15 16 17 2
16 17 18 2
19 20 21 2
20 21 22 2
21 22 23 2
22 23 24 2
25 26 27 2
26 27 28 2
27 28 29 2
28 29 30 2
31 32 33 2
32 33 34 2
33 34 35 2
34 35 36 2
37 38 39 2
38 39 40 2
39 40 41 2
40 41 42 2
43 44 45 2
44 45 46 2
45 46 47 2
46 47 48 2
49 50 51 2
50 51 52 2
51 52 53 2
52 53 54 2
55 56 57 2
56 57 58 2
57 58 59 2
58 59 60 2
61 62 63 2
62 63 64 2
63 64 65 2
64 65 66 2
67 68 69 2
68 69 70 2
69 70 71 2
70 71 72 2
73 74 75 2
74 75 76 2
75 76 77 2
76 77 78 2
79 80 81 2
80 81 82 2
81 82 83 2
82 83 84 2
85 86 87 2
86 87 88 2
87 88 89 2
88 89 90 2
91 92 93 2
92 93 94 2
93 94 95 2
94 95 96 2
97 98 99 2
98 99 100 2
99 100 101 2
100 101 102 2
103 104 105 2
104 105 106 2
105 106 107 2
106 107 108 2
109 110 111 2
110 111 112 2
111 112 113 2
112 113 114 2
115 116 117 2
116 117 118 2
117 118 119 2
118 119 120 2
121 122 123 2
122 123 124 2
123 124 125 2
124 125 126 2
127 128 129 2
128 129 130 2
129 130 131 2
130 131 132 2
133 134 135 2
134 135 136 2
135 136 137 2
136 137 138 2
139 140 141 2
140 141 142 2
141 142 143 2
142 143 144 2
145 146 147 2
146 147 148 2
147 148 149 2
148 149 150 2
151 152 153 2
152 153 154 2
153 154 155 2
154 155 156 2
157 158 159 2
158 159 160 2
159 160 161 2
160 161 162 2
163 164 165 2
164 165 166 2
165 166 167 2
166 167 168 2
169 170 171 2
170 171 172 2
171 172 173 2
172 173 174 2
175 176 177 2
176 177 178 2
177 178 179 2
178 179 180 2
181 182 183 2
182 183 184 2
183 184 185 2
184 185 186 2
187 188 189 2
188 189 190 2
189 190 191 2
190 191 192 2
193 194 195 2
194 195 196 2
195 196 197 2
196 197 198 2
199 200 201 2
200 201 202 2
201 202 203 2
202 203 204 2
205 206 207 2
206 207 208 2
207 208 209 2
208 209 210 2
211 212 213 2
212 213 214 2
213 214 215 2
214 215 216 2
217 218 219 2
218 219 220 2
219 220 221 2
220 221 222 2
223 224 225 2
224 225 226 2
225 226 227 2
226 227 228 2
229 230 231 2
230 231 232 2
231 232 233 2
232 233 234 2
235 236 237 2
236 237 238 2
237 238 239 2
238 239 240 2
241 242 243 2
242 243 244 2
243 244 245 2
244 245 246 2
247 248 249 2
248 249 250 2
249 250 251 2
250 251 252 2
253 254 255 2
254 255 256 2
255 256 257 2
256 257 258 2
259 260 261 2
260 261 262 2
261 262 263 2
262 263 264 2
265 266 267 2
266 267 268 2
267 268 269 2
268 269 270 2
271 272 273 2
272 273 274 2
273 274 275 2
274 275 276 2
277 278 279 2
278 279 280 2
279 280 281 2
280 281 282 2
283 284 285 2
284 285 286 2
285 286 287 2
286 287 288 2
289 290 291 2
290 291 292 2
291 292 293 2
292 293 294 2
295 296 297 2
296 297 298 2
297 298 299 2
298 299 300 2
301 302 303 2
302 303 304 2
303 304 305 2
304 305 306 2
307 308 309 2
308 309 310 2
309 310 311 2
310 311 312 2
313 314 315 2
314 315 316 2
315 316 317 2
316 317 318 2
319 320 321 2
320 321 322 2
321 322 323 2
322 323 324 2
325 326 327 2
326 327 328 2
327 328 329 2
328 329 330 2
331 332 333 2
332 333 334 2
333 334 335 2
334 335 336 2
337 338 339 2
338 339 340 2
339 340 341 2
340 341 342 2
343 344 345 2
344 345 346 2
345 346 347 2
346 347 348 2
349 350 351 2
350 351 352 2
351 352 353 2
352 353 354 2
355 356 357 2
356 357 358 2
357 358 359 2
358 359 360 2
361 362 363 2
362 363 364 2
363 364 365 2
364 365 366 2
367 368 369 2
368 369 370 2
369 370 371 2
370 371 372 2
373 374 375 2
374 375 376 2
375 376 377 2
376 377 378 2
379 380 381 2
380 381 382 2
381 382 383 2
382 383 384 2
385 386 387 2
386 387 388 2
387 388 389 2
388 389 390 2
391 392 393 2
392 393 394 2
393 394 395 2
394 395 396 2
397 398 399 2
398 399 400 2
399 400 401 2
400 401 402 2
403 404 405 2
404 405 406 2
405 406 407 2
406 407 408 2
409 410 411 2
410 411 412 2
411 412 413 2
412 413 414 2
415 416 417 2
416 417 418 2
417 418 419 2
418 419 420 2
421 422 423 2
422 423 424 2
423 424 425 2
424 425 426 2
427 428 429 2
428 429 430 2
429 430 431 2
430 431 432 2
433 434 435 2
434 435 436 2
435 436 437 2
436 437 438 2
439 440 441 2
440 441 442 2
441 442 443 2
442 443 444 2
445 446 447 2
446 447 448 2
447 448 449 2
448 449 450 2
451 452 453 2
452 453 454 2
453 454 455 2
454 455 456 2
457 458 459 2
458 459 460 2
459 460 461 2
460 461 462 2
463 464 465 2
464 465 466 2
465 466 467 2
466 467 468 2
469 470 471 2
470 471 472 2
471 472 473 2
472 473 474 2
475 476 477 2
476 477 478 2
477 478 479 2
478 479 480 2
481 482 483 2
482 483 484 2
483 484 485 2
484 485 486 2
487 488 489 2
488 489 490 2
489 490 491 2
490 491 492 2
493 494 495 2
494 495 496 2
495 496 497 2
496 497 498 2
499 500 501 2
500 501 502 2
501 502 503 2
502 503 504 2
505 506 507 2
506 507 508 2
507 508 509 2
508 509 510 2
511 512 513 2
512 513 514 2
513 514 515 2
514 515 516 2
517 518 519 2
518 519 520 2
519 520 521 2
520 521 522 2
523 524 525 2
524 525 526 2
525 526 527 2
526 527 528 2
529 530 531 2
530 531 532 2
531 532 533 2
532 533 534 2
535 536 537 2
536 537 538 2
537 538 539 2
538 539 540 2

[ dihedrals ]

[ pairs ]
;from 1-4 pair
