Write by polyGraft 
12263
    1   PE   C1    1   6.563   3.472   0.612
    1   PE   C2    2   6.263   3.478   0.974
    1   PE   C3    3   5.963   3.485   1.336
    1   PE   C4    4   5.663   3.492   1.697
    1   PE   C5    5   5.363   3.498   2.059
    1   PE   C6    6   5.063   3.505   2.421
    1   PE   C1    7   6.563   3.472   1.836
    1   PE   C2    8   6.263   3.478   2.198
    1   PE   C3    9   5.963   3.485   2.560
    1   PE   C4   10   5.663   3.492   2.921
    1   PE   C5   11   5.363   3.498   3.283
    1   PE   C6   12   5.063   3.505   3.645
    1   PE   C1   13   6.563   3.472   3.060
    1   PE   C2   14   6.263   3.478   3.422
    1   PE   C3   15   5.963   3.485   3.784
    1   PE   C4   16   5.663   3.492   4.145
    1   PE   C5   17   5.363   3.498   4.507
    1   PE   C6   18   5.063   3.505   4.869
    1   PE   C1   19   6.563   3.472   4.284
    1   PE   C2   20   6.263   3.478   4.646
    1   PE   C3   21   5.963   3.485   5.008
    1   PE   C4   22   5.663   3.492   5.369
    1   PE   C5   23   5.363   3.498   5.731
    1   PE   C6   24   5.063   3.505   6.093
    1   PE   C1   25   6.563   3.472   5.508
    1   PE   C2   26   6.263   3.478   5.870
    1   PE   C3   27   5.963   3.485   6.232
    1   PE   C4   28   5.663   3.492   6.593
    1   PE   C5   29   5.363   3.498   6.955
    1   PE   C6   30   5.063   3.505   7.317
    1   PE   C1   31   6.563   3.472   6.732
    1   PE   C2   32   6.263   3.478   7.094
    1   PE   C3   33   5.963   3.485   7.456
    1   PE   C4   34   5.663   3.492   7.817
    1   PE   C5   35   5.363   3.498   8.179
    1   PE   C6   36   5.063   3.505   8.541
    1   PE   C1   37   6.172   4.822   0.408
    1   PE   C2   38   5.902   4.690   0.770
    1   PE   C3   39   5.633   4.559   1.132
    1   PE   C4   40   5.363   4.428   1.493
    1   PE   C5   41   5.093   4.296   1.855
    1   PE   C6   42   4.824   4.165   2.217
    1   PE   C1   43   6.172   4.822   1.632
    1   PE   C2   44   5.902   4.690   1.994
    1   PE   C3   45   5.633   4.559   2.356
    1   PE   C4   46   5.363   4.428   2.717
    1   PE   C5   47   5.093   4.296   3.079
    1   PE   C6   48   4.824   4.165   3.441
    1   PE   C1   49   6.172   4.822   2.856
    1   PE   C2   50   5.902   4.690   3.218
    1   PE   C3   51   5.633   4.559   3.580
    1   PE   C4   52   5.363   4.428   3.941
    1   PE   C5   53   5.093   4.296   4.303
    1   PE   C6   54   4.824   4.165   4.665
    1   PE   C1   55   6.172   4.822   4.080
    1   PE   C2   56   5.902   4.690   4.442
    1   PE   C3   57   5.633   4.559   4.804
    1   PE   C4   58   5.363   4.428   5.165
    1   PE   C5   59   5.093   4.296   5.527
    1   PE   C6   60   4.824   4.165   5.889
    1   PE   C1   61   6.172   4.822   5.304
    1   PE   C2   62   5.902   4.690   5.666
    1   PE   C3   63   5.633   4.559   6.028
    1   PE   C4   64   5.363   4.428   6.389
    1   PE   C5   65   5.093   4.296   6.751
    1   PE   C6   66   4.824   4.165   7.113
    1   PE   C1   67   6.172   4.822   6.528
    1   PE   C2   68   5.902   4.690   6.890
    1   PE   C3   69   5.633   4.559   7.252
    1   PE   C4   70   5.363   4.428   7.613
    1   PE   C5   71   5.093   4.296   7.975
    1   PE   C6   72   4.824   4.165   8.337
    1   PE   C1   73   5.400   5.786   0.612
    1   PE   C2   74   5.209   5.555   0.974
    1   PE   C3   75   5.017   5.324   1.336
    1   PE   C4   76   4.826   5.093   1.697
    1   PE   C5   77   4.635   4.862   2.059
    1   PE   C6   78   4.443   4.631   2.421
    1   PE   C1   79   5.400   5.786   1.836
    1   PE   C2   80   5.209   5.555   2.198
    1   PE   C3   81   5.017   5.324   2.560
    1   PE   C4   82   4.826   5.093   2.921
    1   PE   C5   83   4.635   4.862   3.283
    1   PE   C6   84   4.443   4.631   3.645
    1   PE   C1   85   5.400   5.786   3.060
    1   PE   C2   86   5.209   5.555   3.422
    1   PE   C3   87   5.017   5.324   3.784
    1   PE   C4   88   4.826   5.093   4.145
    1   PE   C5   89   4.635   4.862   4.507
    1   PE   C6   90   4.443   4.631   4.869
    1   PE   C1   91   5.400   5.786   4.284
    1   PE   C2   92   5.209   5.555   4.646
    1   PE   C3   93   5.017   5.324   5.008
    1   PE   C4   94   4.826   5.093   5.369
    1   PE   C5   95   4.635   4.862   5.731
    1   PE   C6   96   4.443   4.631   6.093
    1   PE   C1   97   5.400   5.786   5.508
    1   PE   C2   98   5.209   5.555   5.870
    1   PE   C3   99   5.017   5.324   6.232
    1   PE   C4  100   4.826   5.093   6.593
    1   PE   C5  101   4.635   4.862   6.955
    1   PE   C6  102   4.443   4.631   7.317
    1   PE   C1  103   5.400   5.786   6.732
    1   PE   C2  104   5.209   5.555   7.094
    1   PE   C3  105   5.017   5.324   7.456
    1   PE   C4  106   4.826   5.093   7.817
    1   PE   C5  107   4.635   4.862   8.179
    1   PE   C6  108   4.443   4.631   8.541
    1   PE   C1  109   4.437   6.367   0.612
    1   PE   C2  110   4.346   6.081   0.974
    1   PE   C3  111   4.255   5.795   1.336
    1   PE   C4  112   4.164   5.509   1.697
    1   PE   C5  113   4.074   5.223   2.059
    1   PE   C6  114   3.983   4.937   2.421
    1   PE   C1  115   4.437   6.367   1.836
    1   PE   C2  116   4.346   6.081   2.198
    1   PE   C3  117   4.255   5.795   2.560
    1   PE   C4  118   4.164   5.509   2.921
    1   PE   C5  119   4.074   5.223   3.283
    1   PE   C6  120   3.983   4.937   3.645
    1   PE   C1  121   4.437   6.367   3.060
    1   PE   C2  122   4.346   6.081   3.422
    1   PE   C3  123   4.255   5.795   3.784
    1   PE   C4  124   4.164   5.509   4.145
    1   PE   C5  125   4.074   5.223   4.507
    1   PE   C6  126   3.983   4.937   4.869
    1   PE   C1  127   4.437   6.367   4.284
    1   PE   C2  128   4.346   6.081   4.646
    1   PE   C3  129   4.255   5.795   5.008
    1   PE   C4  130   4.164   5.509   5.369
    1   PE   C5  131   4.074   5.223   5.731
    1   PE   C6  132   3.983   4.937   6.093
    1   PE   C1  133   4.437   6.367   5.508
    1   PE   C2  134   4.346   6.081   5.870
    1   PE   C3  135   4.255   5.795   6.232
    1   PE   C4  136   4.164   5.509   6.593
    1   PE   C5  137   4.074   5.223   6.955
    1   PE   C6  138   3.983   4.937   7.317
    1   PE   C1  139   4.437   6.367   6.732
    1   PE   C2  140   4.346   6.081   7.094
    1   PE   C3  141   4.255   5.795   7.456
    1   PE   C4  142   4.164   5.509   7.817
    1   PE   C5  143   4.074   5.223   8.179
    1   PE   C6  144   3.983   4.937   8.541
    1   PE   C1  145   3.085   6.565   0.612
    1   PE   C2  146   3.130   6.268   0.974
    1   PE   C3  147   3.174   5.971   1.336
    1   PE   C4  148   3.219   5.675   1.697
    1   PE   C5  149   3.263   5.378   2.059
    1   PE   C6  150   3.307   5.081   2.421
    1   PE   C1  151   3.085   6.565   1.836
    1   PE   C2  152   3.130   6.268   2.198
    1   PE   C3  153   3.174   5.971   2.560
    1   PE   C4  154   3.219   5.675   2.921
    1   PE   C5  155   3.263   5.378   3.283
    1   PE   C6  156   3.307   5.081   3.645
    1   PE   C1  157   3.085   6.565   3.060
    1   PE   C2  158   3.130   6.268   3.422
    1   PE   C3  159   3.174   5.971   3.784
    1   PE   C4  160   3.219   5.675   4.145
    1   PE   C5  161   3.263   5.378   4.507
    1   PE   C6  162   3.307   5.081   4.869
    1   PE   C1  163   3.085   6.565   4.284
    1   PE   C2  164   3.130   6.268   4.646
    1   PE   C3  165   3.174   5.971   5.008
    1   PE   C4  166   3.219   5.675   5.369
    1   PE   C5  167   3.263   5.378   5.731
    1   PE   C6  168   3.307   5.081   6.093
    1   PE   C1  169   3.085   6.565   5.508
    1   PE   C2  170   3.130   6.268   5.870
    1   PE   C3  171   3.174   5.971   6.232
    1   PE   C4  172   3.219   5.675   6.593
    1   PE   C5  173   3.263   5.378   6.955
    1   PE   C6  174   3.307   5.081   7.317
    1   PE   C1  175   3.085   6.565   6.732
    1   PE   C2  176   3.130   6.268   7.094
    1   PE   C3  177   3.174   5.971   7.456
    1   PE   C4  178   3.219   5.675   7.817
    1   PE   C5  179   3.263   5.378   8.179
    1   PE   C6  180   3.307   5.081   8.541
    1   PE   C1  181   2.120   6.175   0.408
    1   PE   C2  182   2.262   5.911   0.770
    1   PE   C3  183   2.404   5.647   1.132
    1   PE   C4  184   2.547   5.383   1.493
    1   PE   C5  185   2.689   5.118   1.855
    1   PE   C6  186   2.831   4.854   2.217
    1   PE   C1  187   2.120   6.175   1.632
    1   PE   C2  188   2.262   5.911   1.994
    1   PE   C3  189   2.404   5.647   2.356
    1   PE   C4  190   2.547   5.383   2.717
    1   PE   C5  191   2.689   5.118   3.079
    1   PE   C6  192   2.831   4.854   3.441
    1   PE   C1  193   2.120   6.175   2.856
    1   PE   C2  194   2.262   5.911   3.218
    1   PE   C3  195   2.404   5.647   3.580
    1   PE   C4  196   2.547   5.383   3.941
    1   PE   C5  197   2.689   5.118   4.303
    1   PE   C6  198   2.831   4.854   4.665
    1   PE   C1  199   2.120   6.175   4.080
    1   PE   C2  200   2.262   5.911   4.442
    1   PE   C3  201   2.404   5.647   4.804
    1   PE   C4  202   2.547   5.383   5.165
    1   PE   C5  203   2.689   5.118   5.527
    1   PE   C6  204   2.831   4.854   5.889
    1   PE   C1  205   2.120   6.175   5.304
    1   PE   C2  206   2.262   5.911   5.666
    1   PE   C3  207   2.404   5.647   6.028
    1   PE   C4  208   2.547   5.383   6.389
    1   PE   C5  209   2.689   5.118   6.751
    1   PE   C6  210   2.831   4.854   7.113
    1   PE   C1  211   2.120   6.175   6.528
    1   PE   C2  212   2.262   5.911   6.890
    1   PE   C3  213   2.404   5.647   7.252
    1   PE   C4  214   2.547   5.383   7.613
    1   PE   C5  215   2.689   5.118   7.975
    1   PE   C6  216   2.831   4.854   8.337
    1   PE   C1  217   1.159   5.207   0.408
    1   PE   C2  218   1.404   5.035   0.770
    1   PE   C3  219   1.650   4.863   1.132
    1   PE   C4  220   1.896   4.690   1.493
    1   PE   C5  221   2.141   4.518   1.855
    1   PE   C6  222   2.387   4.346   2.217
    1   PE   C1  223   1.159   5.207   1.632
    1   PE   C2  224   1.404   5.035   1.994
    1   PE   C3  225   1.650   4.863   2.356
    1   PE   C4  226   1.896   4.690   2.717
    1   PE   C5  227   2.141   4.518   3.079
    1   PE   C6  228   2.387   4.346   3.441
    1   PE   C1  229   1.159   5.207   2.856
    1   PE   C2  230   1.404   5.035   3.218
    1   PE   C3  231   1.650   4.863   3.580
    1   PE   C4  232   1.896   4.690   3.941
    1   PE   C5  233   2.141   4.518   4.303
    1   PE   C6  234   2.387   4.346   4.665
    1   PE   C1  235   1.159   5.207   4.080
    1   PE   C2  236   1.404   5.035   4.442
    1   PE   C3  237   1.650   4.863   4.804
    1   PE   C4  238   1.896   4.690   5.165
    1   PE   C5  239   2.141   4.518   5.527
    1   PE   C6  240   2.387   4.346   5.889
    1   PE   C1  241   1.159   5.207   5.304
    1   PE   C2  242   1.404   5.035   5.666
    1   PE   C3  243   1.650   4.863   6.028
    1   PE   C4  244   1.896   4.690   6.389
    1   PE   C5  245   2.141   4.518   6.751
    1   PE   C6  246   2.387   4.346   7.113
    1   PE   C1  247   1.159   5.207   6.528
    1   PE   C2  248   1.404   5.035   6.890
    1   PE   C3  249   1.650   4.863   7.252
    1   PE   C4  250   1.896   4.690   7.613
    1   PE   C5  251   2.141   4.518   7.975
    1   PE   C6  252   2.387   4.346   8.337
    1   PE   C1  253   0.776   4.242   0.612
    1   PE   C2  254   1.067   4.168   0.974
    1   PE   C3  255   1.357   4.094   1.336
    1   PE   C4  256   1.648   4.020   1.697
    1   PE   C5  257   1.939   3.946   2.059
    1   PE   C6  258   2.230   3.872   2.421
    1   PE   C1  259   0.776   4.242   1.836
    1   PE   C2  260   1.067   4.168   2.198
    1   PE   C3  261   1.357   4.094   2.560
    1   PE   C4  262   1.648   4.020   2.921
    1   PE   C5  263   1.939   3.946   3.283
    1   PE   C6  264   2.230   3.872   3.645
    1   PE   C1  265   0.776   4.242   3.060
    1   PE   C2  266   1.067   4.168   3.422
    1   PE   C3  267   1.357   4.094   3.784
    1   PE   C4  268   1.648   4.020   4.145
    1   PE   C5  269   1.939   3.946   4.507
    1   PE   C6  270   2.230   3.872   4.869
    1   PE   C1  271   0.776   4.242   4.284
    1   PE   C2  272   1.067   4.168   4.646
    1   PE   C3  273   1.357   4.094   5.008
    1   PE   C4  274   1.648   4.020   5.369
    1   PE   C5  275   1.939   3.946   5.731
    1   PE   C6  276   2.230   3.872   6.093
    1   PE   C1  277   0.776   4.242   5.508
    1   PE   C2  278   1.067   4.168   5.870
    1   PE   C3  279   1.357   4.094   6.232
    1   PE   C4  280   1.648   4.020   6.593
    1   PE   C5  281   1.939   3.946   6.955
    1   PE   C6  282   2.230   3.872   7.317
    1   PE   C1  283   0.776   4.242   6.732
    1   PE   C2  284   1.067   4.168   7.094
    1   PE   C3  285   1.357   4.094   7.456
    1   PE   C4  286   1.648   4.020   7.817
    1   PE   C5  287   1.939   3.946   8.179
    1   PE   C6  288   2.230   3.872   8.541
    1   PE   C1  289   0.779   3.087   0.612
    1   PE   C2  290   1.075   3.136   0.974
    1   PE   C3  291   1.371   3.184   1.336
    1   PE   C4  292   1.667   3.233   1.697
    1   PE   C5  293   1.963   3.281   2.059
    1   PE   C6  294   2.259   3.329   2.421
    1   PE   C1  295   0.779   3.087   1.836
    1   PE   C2  296   1.075   3.136   2.198
    1   PE   C3  297   1.371   3.184   2.560
    1   PE   C4  298   1.667   3.233   2.921
    1   PE   C5  299   1.963   3.281   3.283
    1   PE   C6  300   2.259   3.329   3.645
    1   PE   C1  301   0.779   3.087   3.060
    1   PE   C2  302   1.075   3.136   3.422
    1   PE   C3  303   1.371   3.184   3.784
    1   PE   C4  304   1.667   3.233   4.145
    1   PE   C5  305   1.963   3.281   4.507
    1   PE   C6  306   2.259   3.329   4.869
    1   PE   C1  307   0.779   3.087   4.284
    1   PE   C2  308   1.075   3.136   4.646
    1   PE   C3  309   1.371   3.184   5.008
    1   PE   C4  310   1.667   3.233   5.369
    1   PE   C5  311   1.963   3.281   5.731
    1   PE   C6  312   2.259   3.329   6.093
    1   PE   C1  313   0.779   3.087   5.508
    1   PE   C2  314   1.075   3.136   5.870
    1   PE   C3  315   1.371   3.184   6.232
    1   PE   C4  316   1.667   3.233   6.593
    1   PE   C5  317   1.963   3.281   6.955
    1   PE   C6  318   2.259   3.329   7.317
    1   PE   C1  319   0.779   3.087   6.732
    1   PE   C2  320   1.075   3.136   7.094
    1   PE   C3  321   1.371   3.184   7.456
    1   PE   C4  322   1.667   3.233   7.817
    1   PE   C5  323   1.963   3.281   8.179
    1   PE   C6  324   2.259   3.329   8.541
    1   PE   C1  325   1.160   1.931   0.612
    1   PE   C2  326   1.409   2.099   0.974
    1   PE   C3  327   1.657   2.267   1.336
    1   PE   C4  328   1.906   2.435   1.697
    1   PE   C5  329   2.154   2.603   2.059
    1   PE   C6  330   2.403   2.771   2.421
    1   PE   C1  331   1.160   1.931   1.836
    1   PE   C2  332   1.409   2.099   2.198
    1   PE   C3  333   1.657   2.267   2.560
    1   PE   C4  334   1.906   2.435   2.921
    1   PE   C5  335   2.154   2.603   3.283
    1   PE   C6  336   2.403   2.771   3.645
    1   PE   C1  337   1.160   1.931   3.060
    1   PE   C2  338   1.409   2.099   3.422
    1   PE   C3  339   1.657   2.267   3.784
    1   PE   C4  340   1.906   2.435   4.145
    1   PE   C5  341   2.154   2.603   4.507
    1   PE   C6  342   2.403   2.771   4.869
    1   PE   C1  343   1.160   1.931   4.284
    1   PE   C2  344   1.409   2.099   4.646
    1   PE   C3  345   1.657   2.267   5.008
    1   PE   C4  346   1.906   2.435   5.369
    1   PE   C5  347   2.154   2.603   5.731
    1   PE   C6  348   2.403   2.771   6.093
    1   PE   C1  349   1.160   1.931   5.508
    1   PE   C2  350   1.409   2.099   5.870
    1   PE   C3  351   1.657   2.267   6.232
    1   PE   C4  352   1.906   2.435   6.593
    1   PE   C5  353   2.154   2.603   6.955
    1   PE   C6  354   2.403   2.771   7.317
    1   PE   C1  355   1.160   1.931   6.732
    1   PE   C2  356   1.409   2.099   7.094
    1   PE   C3  357   1.657   2.267   7.456
    1   PE   C4  358   1.906   2.435   7.817
    1   PE   C5  359   2.154   2.603   8.179
    1   PE   C6  360   2.403   2.771   8.541
    1   PE   C1  361   2.122   0.964   0.612
    1   PE   C2  362   2.266   1.227   0.974
    1   PE   C3  363   2.411   1.490   1.336
    1   PE   C4  364   2.556   1.753   1.697
    1   PE   C5  365   2.700   2.015   2.059
    1   PE   C6  366   2.845   2.278   2.421
    1   PE   C1  367   2.122   0.964   1.836
    1   PE   C2  368   2.266   1.227   2.198
    1   PE   C3  369   2.411   1.490   2.560
    1   PE   C4  370   2.556   1.753   2.921
    1   PE   C5  371   2.700   2.015   3.283
    1   PE   C6  372   2.845   2.278   3.645
    1   PE   C1  373   2.122   0.964   3.060
    1   PE   C2  374   2.266   1.227   3.422
    1   PE   C3  375   2.411   1.490   3.784
    1   PE   C4  376   2.556   1.753   4.145
    1   PE   C5  377   2.700   2.015   4.507
    1   PE   C6  378   2.845   2.278   4.869
    1   PE   C1  379   2.122   0.964   4.284
    1   PE   C2  380   2.266   1.227   4.646
    1   PE   C3  381   2.411   1.490   5.008
    1   PE   C4  382   2.556   1.753   5.369
    1   PE   C5  383   2.700   2.015   5.731
    1   PE   C6  384   2.845   2.278   6.093
    1   PE   C1  385   2.122   0.964   5.508
    1   PE   C2  386   2.266   1.227   5.870
    1   PE   C3  387   2.411   1.490   6.232
    1   PE   C4  388   2.556   1.753   6.593
    1   PE   C5  389   2.700   2.015   6.955
    1   PE   C6  390   2.845   2.278   7.317
    1   PE   C1  391   2.122   0.964   6.732
    1   PE   C2  392   2.266   1.227   7.094
    1   PE   C3  393   2.411   1.490   7.456
    1   PE   C4  394   2.556   1.753   7.817
    1   PE   C5  395   2.700   2.015   8.179
    1   PE   C6  396   2.845   2.278   8.541
    1   PE   C1  397   3.279   0.577   0.612
    1   PE   C2  398   3.305   0.875   0.974
    1   PE   C3  399   3.331   1.174   1.336
    1   PE   C4  400   3.357   1.473   1.697
    1   PE   C5  401   3.384   1.772   2.059
    1   PE   C6  402   3.410   2.071   2.421
    1   PE   C1  403   3.279   0.577   1.836
    1   PE   C2  404   3.305   0.875   2.198
    1   PE   C3  405   3.331   1.174   2.560
    1   PE   C4  406   3.357   1.473   2.921
    1   PE   C5  407   3.384   1.772   3.283
    1   PE   C6  408   3.410   2.071   3.645
    1   PE   C1  409   3.279   0.577   3.060
    1   PE   C2  410   3.305   0.875   3.422
    1   PE   C3  411   3.331   1.174   3.784
    1   PE   C4  412   3.357   1.473   4.145
    1   PE   C5  413   3.384   1.772   4.507
    1   PE   C6  414   3.410   2.071   4.869
    1   PE   C1  415   3.279   0.577   4.284
    1   PE   C2  416   3.305   0.875   4.646
    1   PE   C3  417   3.331   1.174   5.008
    1   PE   C4  418   3.357   1.473   5.369
    1   PE   C5  419   3.384   1.772   5.731
    1   PE   C6  420   3.410   2.071   6.093
    1   PE   C1  421   3.279   0.577   5.508
    1   PE   C2  422   3.305   0.875   5.870
    1   PE   C3  423   3.331   1.174   6.232
    1   PE   C4  424   3.357   1.473   6.593
    1   PE   C5  425   3.384   1.772   6.955
    1   PE   C6  426   3.410   2.071   7.317
    1   PE   C1  427   3.279   0.577   6.732
    1   PE   C2  428   3.305   0.875   7.094
    1   PE   C3  429   3.331   1.174   7.456
    1   PE   C4  430   3.357   1.473   7.817
    1   PE   C5  431   3.384   1.772   8.179
    1   PE   C6  432   3.410   2.071   8.541
    1   PE   C1  433   4.436   0.773   0.408
    1   PE   C2  434   4.343   1.058   0.770
    1   PE   C3  435   4.251   1.344   1.132
    1   PE   C4  436   4.158   1.629   1.493
    1   PE   C5  437   4.066   1.914   1.855
    1   PE   C6  438   3.973   2.200   2.217
    1   PE   C1  439   4.436   0.773   1.632
    1   PE   C2  440   4.343   1.058   1.994
    1   PE   C3  441   4.251   1.344   2.356
    1   PE   C4  442   4.158   1.629   2.717
    1   PE   C5  443   4.066   1.914   3.079
    1   PE   C6  444   3.973   2.200   3.441
    1   PE   C1  445   4.436   0.773   2.856
    1   PE   C2  446   4.343   1.058   3.218
    1   PE   C3  447   4.251   1.344   3.580
    1   PE   C4  448   4.158   1.629   3.941
    1   PE   C5  449   4.066   1.914   4.303
    1   PE   C6  450   3.973   2.200   4.665
    1   PE   C1  451   4.436   0.773   4.080
    1   PE   C2  452   4.343   1.058   4.442
    1   PE   C3  453   4.251   1.344   4.804
    1   PE   C4  454   4.158   1.629   5.165
    1   PE   C5  455   4.066   1.914   5.527
    1   PE   C6  456   3.973   2.200   5.889
    1   PE   C1  457   4.436   0.773   5.304
    1   PE   C2  458   4.343   1.058   5.666
    1   PE   C3  459   4.251   1.344   6.028
    1   PE   C4  460   4.158   1.629   6.389
    1   PE   C5  461   4.066   1.914   6.751
    1   PE   C6  462   3.973   2.200   7.113
    1   PE   C1  463   4.436   0.773   6.528
    1   PE   C2  464   4.343   1.058   6.890
    1   PE   C3  465   4.251   1.344   7.252
    1   PE   C4  466   4.158   1.629   7.613
    1   PE   C5  467   4.066   1.914   7.975
    1   PE   C6  468   3.973   2.200   8.337
    1   PE   C1  469   5.596   1.347   0.612
    1   PE   C2  470   5.391   1.566   0.974
    1   PE   C3  471   5.186   1.785   1.336
    1   PE   C4  472   4.980   2.003   1.697
    1   PE   C5  473   4.775   2.222   2.059
    1   PE   C6  474   4.570   2.441   2.421
    1   PE   C1  475   5.596   1.347   1.836
    1   PE   C2  476   5.391   1.566   2.198
    1   PE   C3  477   5.186   1.785   2.560
    1   PE   C4  478   4.980   2.003   2.921
    1   PE   C5  479   4.775   2.222   3.283
    1   PE   C6  480   4.570   2.441   3.645
    1   PE   C1  481   5.596   1.347   3.060
    1   PE   C2  482   5.391   1.566   3.422
    1   PE   C3  483   5.186   1.785   3.784
    1   PE   C4  484   4.980   2.003   4.145
    1   PE   C5  485   4.775   2.222   4.507
    1   PE   C6  486   4.570   2.441   4.869
    1   PE   C1  487   5.596   1.347   4.284
    1   PE   C2  488   5.391   1.566   4.646
    1   PE   C3  489   5.186   1.785   5.008
    1   PE   C4  490   4.980   2.003   5.369
    1   PE   C5  491   4.775   2.222   5.731
    1   PE   C6  492   4.570   2.441   6.093
    1   PE   C1  493   5.596   1.347   5.508
    1   PE   C2  494   5.391   1.566   5.870
    1   PE   C3  495   5.186   1.785   6.232
    1   PE   C4  496   4.980   2.003   6.593
    1   PE   C5  497   4.775   2.222   6.955
    1   PE   C6  498   4.570   2.441   7.317
    1   PE   C1  499   5.596   1.347   6.732
    1   PE   C2  500   5.391   1.566   7.094
    1   PE   C3  501   5.186   1.785   7.456
    1   PE   C4  502   4.980   2.003   7.817
    1   PE   C5  503   4.775   2.222   8.179
    1   PE   C6  504   4.570   2.441   8.541
    1   PE   C1  505   6.171   2.315   0.612
    1   PE   C2  506   5.899   2.442   0.974
    1   PE   C3  507   5.627   2.568   1.336
    1   PE   C4  508   5.354   2.695   1.697
    1   PE   C5  509   5.082   2.821   2.059
    1   PE   C6  510   4.810   2.948   2.421
    1   PE   C1  511   6.171   2.315   1.836
    1   PE   C2  512   5.899   2.442   2.198
    1   PE   C3  513   5.627   2.568   2.560
    1   PE   C4  514   5.354   2.695   2.921
    1   PE   C5  515   5.082   2.821   3.283
    1   PE   C6  516   4.810   2.948   3.645
    1   PE   C1  517   6.171   2.315   3.060
    1   PE   C2  518   5.899   2.442   3.422
    1   PE   C3  519   5.627   2.568   3.784
    1   PE   C4  520   5.354   2.695   4.145
    1   PE   C5  521   5.082   2.821   4.507
    1   PE   C6  522   4.810   2.948   4.869
    1   PE   C1  523   6.171   2.315   4.284
    1   PE   C2  524   5.899   2.442   4.646
    1   PE   C3  525   5.627   2.568   5.008
    1   PE   C4  526   5.354   2.695   5.369
    1   PE   C5  527   5.082   2.821   5.731
    1   PE   C6  528   4.810   2.948   6.093
    1   PE   C1  529   6.171   2.315   5.508
    1   PE   C2  530   5.899   2.442   5.870
    1   PE   C3  531   5.627   2.568   6.232
    1   PE   C4  532   5.354   2.695   6.593
    1   PE   C5  533   5.082   2.821   6.955
    1   PE   C6  534   4.810   2.948   7.317
    1   PE   C1  535   6.171   2.315   6.732
    1   PE   C2  536   5.899   2.442   7.094
    1   PE   C3  537   5.627   2.568   7.456
    1   PE   C4  538   5.354   2.695   7.817
    1   PE   C5  539   5.082   2.821   8.179
    1   PE   C6  540   4.810   2.948   8.541
    1  LAT   Au  541   0.000   0.000   0.000
    2  LAT   Au  542   0.204   0.204   0.000
    3  LAT   Au  543   0.000   0.204   0.204
    4  LAT   Au  544   0.204   0.000   0.204
    5  LAT   Au  545   0.408   0.000   0.000
    6  LAT   Au  546   0.612   0.204   0.000
    7  LAT   Au  547   0.408   0.204   0.204
    8  LAT   Au  548   0.612   0.000   0.204
    9  LAT   Au  549   0.816   0.000   0.000
   10  LAT   Au  550   1.020   0.204   0.000
   11  LAT   Au  551   0.816   0.204   0.204
   12  LAT   Au  552   1.020   0.000   0.204
   13  LAT   Au  553   1.224   0.000   0.000
   14  LAT   Au  554   1.428   0.204   0.000
   15  LAT   Au  555   1.224   0.204   0.204
   16  LAT   Au  556   1.428   0.000   0.204
   17  LAT   Au  557   1.632   0.000   0.000
   18  LAT   Au  558   1.836   0.204   0.000
   19  LAT   Au  559   1.632   0.204   0.204
   20  LAT   Au  560   1.836   0.000   0.204
   21  LAT   Au  561   2.040   0.000   0.000
   22  LAT   Au  562   2.244   0.204   0.000
   23  LAT   Au  563   2.040   0.204   0.204
   24  LAT   Au  564   2.244   0.000   0.204
   25  LAT   Au  565   2.448   0.000   0.000
   26  LAT   Au  566   2.652   0.204   0.000
   27  LAT   Au  567   2.448   0.204   0.204
   28  LAT   Au  568   2.652   0.000   0.204
   29  LAT   Au  569   2.856   0.000   0.000
   30  LAT   Au  570   3.060   0.204   0.000
   31  LAT   Au  571   2.856   0.204   0.204
   32  LAT   Au  572   3.060   0.000   0.204
   33  LAT   Au  573   3.264   0.000   0.000
   34  LAT   Au  574   3.468   0.204   0.000
   35  LAT   Au  575   3.264   0.204   0.204
   36  LAT   Au  576   3.468   0.000   0.204
   37  LAT   Au  577   3.672   0.000   0.000
   38  LAT   Au  578   3.876   0.204   0.000
   39  LAT   Au  579   3.672   0.204   0.204
   40  LAT   Au  580   3.876   0.000   0.204
   41  LAT   Au  581   4.080   0.000   0.000
   42  LAT   Au  582   4.284   0.204   0.000
   43  LAT   Au  583   4.080   0.204   0.204
   44  LAT   Au  584   4.284   0.000   0.204
   45  LAT   Au  585   4.488   0.000   0.000
   46  LAT   Au  586   4.692   0.204   0.000
   47  LAT   Au  587   4.488   0.204   0.204
   48  LAT   Au  588   4.692   0.000   0.204
   49  LAT   Au  589   4.896   0.000   0.000
   50  LAT   Au  590   5.100   0.204   0.000
   51  LAT   Au  591   4.896   0.204   0.204
   52  LAT   Au  592   5.100   0.000   0.204
   53  LAT   Au  593   5.304   0.000   0.000
   54  LAT   Au  594   5.508   0.204   0.000
   55  LAT   Au  595   5.304   0.204   0.204
   56  LAT   Au  596   5.508   0.000   0.204
   57  LAT   Au  597   5.712   0.000   0.000
   58  LAT   Au  598   5.916   0.204   0.000
   59  LAT   Au  599   5.712   0.204   0.204
   60  LAT   Au  600   5.916   0.000   0.204
   61  LAT   Au  601   6.120   0.000   0.000
   62  LAT   Au  602   6.324   0.204   0.000
   63  LAT   Au  603   6.120   0.204   0.204
   64  LAT   Au  604   6.324   0.000   0.204
   65  LAT   Au  605   6.528   0.000   0.000
   66  LAT   Au  606   6.732   0.204   0.000
   67  LAT   Au  607   6.528   0.204   0.204
   68  LAT   Au  608   6.732   0.000   0.204
   69  LAT   Au  609   6.936   0.000   0.000
   70  LAT   Au  610   7.140   0.204   0.000
   71  LAT   Au  611   6.936   0.204   0.204
   72  LAT   Au  612   7.140   0.000   0.204
   73  LAT   Au  613   0.000   0.408   0.000
   74  LAT   Au  614   0.204   0.612   0.000
   75  LAT   Au  615   0.000   0.612   0.204
   76  LAT   Au  616   0.204   0.408   0.204
   77  LAT   Au  617   0.408   0.408   0.000
   78  LAT   Au  618   0.612   0.612   0.000
   79  LAT   Au  619   0.408   0.612   0.204
   80  LAT   Au  620   0.612   0.408   0.204
   81  LAT   Au  621   0.816   0.408   0.000
   82  LAT   Au  622   1.020   0.612   0.000
   83  LAT   Au  623   0.816   0.612   0.204
   84  LAT   Au  624   1.020   0.408   0.204
   85  LAT   Au  625   1.224   0.408   0.000
   86  LAT   Au  626   1.428   0.612   0.000
   87  LAT   Au  627   1.224   0.612   0.204
   88  LAT   Au  628   1.428   0.408   0.204
   89  LAT   Au  629   1.632   0.408   0.000
   90  LAT   Au  630   1.836   0.612   0.000
   91  LAT   Au  631   1.632   0.612   0.204
   92  LAT   Au  632   1.836   0.408   0.204
   93  LAT   Au  633   2.040   0.408   0.000
   94  LAT   Au  634   2.244   0.612   0.000
   95  LAT   Au  635   2.040   0.612   0.204
   96  LAT   Au  636   2.244   0.408   0.204
   97  LAT   Au  637   2.448   0.408   0.000
   98  LAT   Au  638   2.652   0.612   0.000
   99  LAT   Au  639   2.448   0.612   0.204
  100  LAT   Au  640   2.652   0.408   0.204
  101  LAT   Au  641   2.856   0.408   0.000
  102  LAT   Au  642   3.060   0.612   0.000
  103  LAT   Au  643   2.856   0.612   0.204
  104  LAT   Au  644   3.060   0.408   0.204
  105  LAT   Au  645   3.264   0.408   0.000
  106  LAT   Au  646   3.264   0.612   0.204
  107  LAT   Au  647   3.468   0.408   0.204
  108  LAT   Au  648   3.672   0.408   0.000
  109  LAT   Au  649   3.876   0.408   0.204
  110  LAT   Au  650   4.080   0.408   0.000
  111  LAT   Au  651   4.284   0.612   0.000
  112  LAT   Au  652   4.080   0.612   0.204
  113  LAT   Au  653   4.284   0.408   0.204
  114  LAT   Au  654   4.488   0.408   0.000
  115  LAT   Au  655   4.692   0.612   0.000
  116  LAT   Au  656   4.488   0.612   0.204
  117  LAT   Au  657   4.692   0.408   0.204
  118  LAT   Au  658   4.896   0.408   0.000
  119  LAT   Au  659   5.100   0.612   0.000
  120  LAT   Au  660   4.896   0.612   0.204
  121  LAT   Au  661   5.100   0.408   0.204
  122  LAT   Au  662   5.304   0.408   0.000
  123  LAT   Au  663   5.508   0.612   0.000
  124  LAT   Au  664   5.304   0.612   0.204
  125  LAT   Au  665   5.508   0.408   0.204
  126  LAT   Au  666   5.712   0.408   0.000
  127  LAT   Au  667   5.916   0.612   0.000
  128  LAT   Au  668   5.712   0.612   0.204
  129  LAT   Au  669   5.916   0.408   0.204
  130  LAT   Au  670   6.120   0.408   0.000
  131  LAT   Au  671   6.324   0.612   0.000
  132  LAT   Au  672   6.120   0.612   0.204
  133  LAT   Au  673   6.324   0.408   0.204
  134  LAT   Au  674   6.528   0.408   0.000
  135  LAT   Au  675   6.732   0.612   0.000
  136  LAT   Au  676   6.528   0.612   0.204
  137  LAT   Au  677   6.732   0.408   0.204
  138  LAT   Au  678   6.936   0.408   0.000
  139  LAT   Au  679   7.140   0.612   0.000
  140  LAT   Au  680   6.936   0.612   0.204
  141  LAT   Au  681   7.140   0.408   0.204
  142  LAT   Au  682   0.000   0.816   0.000
  143  LAT   Au  683   0.204   1.020   0.000
  144  LAT   Au  684   0.000   1.020   0.204
  145  LAT   Au  685   0.204   0.816   0.204
  146  LAT   Au  686   0.408   0.816   0.000
  147  LAT   Au  687   0.612   1.020   0.000
  148  LAT   Au  688   0.408   1.020   0.204
  149  LAT   Au  689   0.612   0.816   0.204
  150  LAT   Au  690   0.816   0.816   0.000
  151  LAT   Au  691   1.020   1.020   0.000
  152  LAT   Au  692   0.816   1.020   0.204
  153  LAT   Au  693   1.020   0.816   0.204
  154  LAT   Au  694   1.224   0.816   0.000
  155  LAT   Au  695   1.428   1.020   0.000
  156  LAT   Au  696   1.224   1.020   0.204
  157  LAT   Au  697   1.428   0.816   0.204
  158  LAT   Au  698   1.632   0.816   0.000
  159  LAT   Au  699   1.836   1.020   0.000
  160  LAT   Au  700   1.632   1.020   0.204
  161  LAT   Au  701   1.836   0.816   0.204
  162  LAT   Au  702   2.040   0.816   0.000
  163  LAT   Au  703   2.040   1.020   0.204
  164  LAT   Au  704   2.244   0.816   0.204
  165  LAT   Au  705   2.448   0.816   0.000
  166  LAT   Au  706   4.896   0.816   0.000
  167  LAT   Au  707   5.100   0.816   0.204
  168  LAT   Au  708   5.304   0.816   0.000
  169  LAT   Au  709   5.508   1.020   0.000
  170  LAT   Au  710   5.304   1.020   0.204
  171  LAT   Au  711   5.508   0.816   0.204
  172  LAT   Au  712   5.712   0.816   0.000
  173  LAT   Au  713   5.916   1.020   0.000
  174  LAT   Au  714   5.712   1.020   0.204
  175  LAT   Au  715   5.916   0.816   0.204
  176  LAT   Au  716   6.120   0.816   0.000
  177  LAT   Au  717   6.324   1.020   0.000
  178  LAT   Au  718   6.120   1.020   0.204
  179  LAT   Au  719   6.324   0.816   0.204
  180  LAT   Au  720   6.528   0.816   0.000
  181  LAT   Au  721   6.732   1.020   0.000
  182  LAT   Au  722   6.528   1.020   0.204
  183  LAT   Au  723   6.732   0.816   0.204
  184  LAT   Au  724   6.936   0.816   0.000
  185  LAT   Au  725   7.140   1.020   0.000
  186  LAT   Au  726   6.936   1.020   0.204
  187  LAT   Au  727   7.140   0.816   0.204
  188  LAT   Au  728   0.000   1.224   0.000
  189  LAT   Au  729   0.204   1.428   0.000
  190  LAT   Au  730   0.000   1.428   0.204
  191  LAT   Au  731   0.204   1.224   0.204
  192  LAT   Au  732   0.408   1.224   0.000
  193  LAT   Au  733   0.612   1.428   0.000
  194  LAT   Au  734   0.408   1.428   0.204
  195  LAT   Au  735   0.612   1.224   0.204
  196  LAT   Au  736   0.816   1.224   0.000
  197  LAT   Au  737   1.020   1.428   0.000
  198  LAT   Au  738   0.816   1.428   0.204
  199  LAT   Au  739   1.020   1.224   0.204
  200  LAT   Au  740   1.224   1.224   0.000
  201  LAT   Au  741   1.428   1.428   0.000
  202  LAT   Au  742   1.224   1.428   0.204
  203  LAT   Au  743   1.428   1.224   0.204
  204  LAT   Au  744   1.632   1.224   0.000
  205  LAT   Au  745   5.508   1.224   0.204
  206  LAT   Au  746   5.712   1.224   0.000
  207  LAT   Au  747   5.916   1.428   0.000
  208  LAT   Au  748   5.712   1.428   0.204
  209  LAT   Au  749   5.916   1.224   0.204
  210  LAT   Au  750   6.120   1.224   0.000
  211  LAT   Au  751   6.324   1.428   0.000
  212  LAT   Au  752   6.120   1.428   0.204
  213  LAT   Au  753   6.324   1.224   0.204
  214  LAT   Au  754   6.528   1.224   0.000
  215  LAT   Au  755   6.732   1.428   0.000
  216  LAT   Au  756   6.528   1.428   0.204
  217  LAT   Au  757   6.732   1.224   0.204
  218  LAT   Au  758   6.936   1.224   0.000
  219  LAT   Au  759   7.140   1.428   0.000
  220  LAT   Au  760   6.936   1.428   0.204
  221  LAT   Au  761   7.140   1.224   0.204
  222  LAT   Au  762   0.000   1.632   0.000
  223  LAT   Au  763   0.204   1.836   0.000
  224  LAT   Au  764   0.000   1.836   0.204
  225  LAT   Au  765   0.204   1.632   0.204
  226  LAT   Au  766   0.408   1.632   0.000
  227  LAT   Au  767   0.612   1.836   0.000
  228  LAT   Au  768   0.408   1.836   0.204
  229  LAT   Au  769   0.612   1.632   0.204
  230  LAT   Au  770   0.816   1.632   0.000
  231  LAT   Au  771   1.020   1.836   0.000
  232  LAT   Au  772   0.816   1.836   0.204
  233  LAT   Au  773   1.020   1.632   0.204
  234  LAT   Au  774   1.224   1.632   0.000
  235  LAT   Au  775   5.916   1.632   0.204
  236  LAT   Au  776   6.120   1.632   0.000
  237  LAT   Au  777   6.324   1.836   0.000
  238  LAT   Au  778   6.120   1.836   0.204
  239  LAT   Au  779   6.324   1.632   0.204
  240  LAT   Au  780   6.528   1.632   0.000
  241  LAT   Au  781   6.732   1.836   0.000
  242  LAT   Au  782   6.528   1.836   0.204
  243  LAT   Au  783   6.732   1.632   0.204
  244  LAT   Au  784   6.936   1.632   0.000
  245  LAT   Au  785   7.140   1.836   0.000
  246  LAT   Au  786   6.936   1.836   0.204
  247  LAT   Au  787   7.140   1.632   0.204
  248  LAT   Au  788   0.000   2.040   0.000
  249  LAT   Au  789   0.204   2.244   0.000
  250  LAT   Au  790   0.000   2.244   0.204
  251  LAT   Au  791   0.204   2.040   0.204
  252  LAT   Au  792   0.408   2.040   0.000
  253  LAT   Au  793   0.612   2.244   0.000
  254  LAT   Au  794   0.408   2.244   0.204
  255  LAT   Au  795   0.612   2.040   0.204
  256  LAT   Au  796   0.816   2.040   0.000
  257  LAT   Au  797   0.816   2.244   0.204
  258  LAT   Au  798   1.020   2.040   0.204
  259  LAT   Au  799   6.324   2.244   0.000
  260  LAT   Au  800   6.324   2.040   0.204
  261  LAT   Au  801   6.528   2.040   0.000
  262  LAT   Au  802   6.732   2.244   0.000
  263  LAT   Au  803   6.528   2.244   0.204
  264  LAT   Au  804   6.732   2.040   0.204
  265  LAT   Au  805   6.936   2.040   0.000
  266  LAT   Au  806   7.140   2.244   0.000
  267  LAT   Au  807   6.936   2.244   0.204
  268  LAT   Au  808   7.140   2.040   0.204
  269  LAT   Au  809   0.000   2.448   0.000
  270  LAT   Au  810   0.204   2.652   0.000
  271  LAT   Au  811   0.000   2.652   0.204
  272  LAT   Au  812   0.204   2.448   0.204
  273  LAT   Au  813   0.408   2.448   0.000
  274  LAT   Au  814   0.612   2.652   0.000
  275  LAT   Au  815   0.408   2.652   0.204
  276  LAT   Au  816   0.612   2.448   0.204
  277  LAT   Au  817   0.816   2.448   0.000
  278  LAT   Au  818   6.528   2.448   0.000
  279  LAT   Au  819   6.732   2.652   0.000
  280  LAT   Au  820   6.528   2.652   0.204
  281  LAT   Au  821   6.732   2.448   0.204
  282  LAT   Au  822   6.936   2.448   0.000
  283  LAT   Au  823   7.140   2.652   0.000
  284  LAT   Au  824   6.936   2.652   0.204
  285  LAT   Au  825   7.140   2.448   0.204
  286  LAT   Au  826   0.000   2.856   0.000
  287  LAT   Au  827   0.204   3.060   0.000
  288  LAT   Au  828   0.000   3.060   0.204
  289  LAT   Au  829   0.204   2.856   0.204
  290  LAT   Au  830   0.408   2.856   0.000
  291  LAT   Au  831   0.612   3.060   0.000
  292  LAT   Au  832   0.408   3.060   0.204
  293  LAT   Au  833   0.612   2.856   0.204
  294  LAT   Au  834   6.528   2.856   0.000
  295  LAT   Au  835   6.732   3.060   0.000
  296  LAT   Au  836   6.732   2.856   0.204
  297  LAT   Au  837   6.936   2.856   0.000
  298  LAT   Au  838   7.140   3.060   0.000
  299  LAT   Au  839   6.936   3.060   0.204
  300  LAT   Au  840   7.140   2.856   0.204
  301  LAT   Au  841   0.000   3.264   0.000
  302  LAT   Au  842   0.204   3.468   0.000
  303  LAT   Au  843   0.000   3.468   0.204
  304  LAT   Au  844   0.204   3.264   0.204
  305  LAT   Au  845   0.408   3.264   0.000
  306  LAT   Au  846   0.408   3.468   0.204
  307  LAT   Au  847   0.612   3.264   0.204
  308  LAT   Au  848   6.732   3.468   0.000
  309  LAT   Au  849   6.732   3.264   0.204
  310  LAT   Au  850   6.936   3.264   0.000
  311  LAT   Au  851   7.140   3.468   0.000
  312  LAT   Au  852   6.936   3.468   0.204
  313  LAT   Au  853   7.140   3.264   0.204
  314  LAT   Au  854   0.000   3.672   0.000
  315  LAT   Au  855   0.204   3.876   0.000
  316  LAT   Au  856   0.000   3.876   0.204
  317  LAT   Au  857   0.204   3.672   0.204
  318  LAT   Au  858   0.408   3.672   0.000
  319  LAT   Au  859   0.408   3.876   0.204
  320  LAT   Au  860   6.732   3.876   0.000
  321  LAT   Au  861   6.732   3.672   0.204
  322  LAT   Au  862   6.936   3.672   0.000
  323  LAT   Au  863   7.140   3.876   0.000
  324  LAT   Au  864   6.936   3.876   0.204
  325  LAT   Au  865   7.140   3.672   0.204
  326  LAT   Au  866   0.000   4.080   0.000
  327  LAT   Au  867   0.204   4.284   0.000
  328  LAT   Au  868   0.000   4.284   0.204
  329  LAT   Au  869   0.204   4.080   0.204
  330  LAT   Au  870   0.408   4.080   0.000
  331  LAT   Au  871   0.612   4.284   0.000
  332  LAT   Au  872   0.408   4.284   0.204
  333  LAT   Au  873   0.612   4.080   0.204
  334  LAT   Au  874   6.732   4.284   0.000
  335  LAT   Au  875   6.528   4.284   0.204
  336  LAT   Au  876   6.732   4.080   0.204
  337  LAT   Au  877   6.936   4.080   0.000
  338  LAT   Au  878   7.140   4.284   0.000
  339  LAT   Au  879   6.936   4.284   0.204
  340  LAT   Au  880   7.140   4.080   0.204
  341  LAT   Au  881   0.000   4.488   0.000
  342  LAT   Au  882   0.204   4.692   0.000
  343  LAT   Au  883   0.000   4.692   0.204
  344  LAT   Au  884   0.204   4.488   0.204
  345  LAT   Au  885   0.408   4.488   0.000
  346  LAT   Au  886   0.612   4.692   0.000
  347  LAT   Au  887   0.408   4.692   0.204
  348  LAT   Au  888   0.612   4.488   0.204
  349  LAT   Au  889   6.528   4.488   0.000
  350  LAT   Au  890   6.732   4.692   0.000
  351  LAT   Au  891   6.528   4.692   0.204
  352  LAT   Au  892   6.732   4.488   0.204
  353  LAT   Au  893   6.936   4.488   0.000
  354  LAT   Au  894   7.140   4.692   0.000
  355  LAT   Au  895   6.936   4.692   0.204
  356  LAT   Au  896   7.140   4.488   0.204
  357  LAT   Au  897   0.000   4.896   0.000
  358  LAT   Au  898   0.204   5.100   0.000
  359  LAT   Au  899   0.000   5.100   0.204
  360  LAT   Au  900   0.204   4.896   0.204
  361  LAT   Au  901   0.408   4.896   0.000
  362  LAT   Au  902   0.612   5.100   0.000
  363  LAT   Au  903   0.408   5.100   0.204
  364  LAT   Au  904   0.612   4.896   0.204
  365  LAT   Au  905   0.816   4.896   0.000
  366  LAT   Au  906   0.816   5.100   0.204
  367  LAT   Au  907   6.324   5.100   0.000
  368  LAT   Au  908   6.324   4.896   0.204
  369  LAT   Au  909   6.528   4.896   0.000
  370  LAT   Au  910   6.732   5.100   0.000
  371  LAT   Au  911   6.528   5.100   0.204
  372  LAT   Au  912   6.732   4.896   0.204
  373  LAT   Au  913   6.936   4.896   0.000
  374  LAT   Au  914   7.140   5.100   0.000
  375  LAT   Au  915   6.936   5.100   0.204
  376  LAT   Au  916   7.140   4.896   0.204
  377  LAT   Au  917   0.000   5.304   0.000
  378  LAT   Au  918   0.204   5.508   0.000
  379  LAT   Au  919   0.000   5.508   0.204
  380  LAT   Au  920   0.204   5.304   0.204
  381  LAT   Au  921   0.408   5.304   0.000
  382  LAT   Au  922   0.612   5.508   0.000
  383  LAT   Au  923   0.408   5.508   0.204
  384  LAT   Au  924   0.612   5.304   0.204
  385  LAT   Au  925   0.816   5.304   0.000
  386  LAT   Au  926   1.020   5.508   0.000
  387  LAT   Au  927   0.816   5.508   0.204
  388  LAT   Au  928   1.020   5.304   0.204
  389  LAT   Au  929   1.224   5.508   0.204
  390  LAT   Au  930   5.916   5.508   0.000
  391  LAT   Au  931   6.120   5.304   0.000
  392  LAT   Au  932   6.324   5.508   0.000
  393  LAT   Au  933   6.120   5.508   0.204
  394  LAT   Au  934   6.324   5.304   0.204
  395  LAT   Au  935   6.528   5.304   0.000
  396  LAT   Au  936   6.732   5.508   0.000
  397  LAT   Au  937   6.528   5.508   0.204
  398  LAT   Au  938   6.732   5.304   0.204
  399  LAT   Au  939   6.936   5.304   0.000
  400  LAT   Au  940   7.140   5.508   0.000
  401  LAT   Au  941   6.936   5.508   0.204
  402  LAT   Au  942   7.140   5.304   0.204
  403  LAT   Au  943   0.000   5.712   0.000
  404  LAT   Au  944   0.204   5.916   0.000
  405  LAT   Au  945   0.000   5.916   0.204
  406  LAT   Au  946   0.204   5.712   0.204
  407  LAT   Au  947   0.408   5.712   0.000
  408  LAT   Au  948   0.612   5.916   0.000
  409  LAT   Au  949   0.408   5.916   0.204
  410  LAT   Au  950   0.612   5.712   0.204
  411  LAT   Au  951   0.816   5.712   0.000
  412  LAT   Au  952   1.020   5.916   0.000
  413  LAT   Au  953   0.816   5.916   0.204
  414  LAT   Au  954   1.020   5.712   0.204
  415  LAT   Au  955   1.224   5.712   0.000
  416  LAT   Au  956   1.428   5.916   0.000
  417  LAT   Au  957   1.224   5.916   0.204
  418  LAT   Au  958   1.428   5.712   0.204
  419  LAT   Au  959   1.632   5.916   0.204
  420  LAT   Au  960   5.508   5.916   0.000
  421  LAT   Au  961   5.916   5.916   0.000
  422  LAT   Au  962   5.712   5.916   0.204
  423  LAT   Au  963   5.916   5.712   0.204
  424  LAT   Au  964   6.120   5.712   0.000
  425  LAT   Au  965   6.324   5.916   0.000
  426  LAT   Au  966   6.120   5.916   0.204
  427  LAT   Au  967   6.324   5.712   0.204
  428  LAT   Au  968   6.528   5.712   0.000
  429  LAT   Au  969   6.732   5.916   0.000
  430  LAT   Au  970   6.528   5.916   0.204
  431  LAT   Au  971   6.732   5.712   0.204
  432  LAT   Au  972   6.936   5.712   0.000
  433  LAT   Au  973   7.140   5.916   0.000
  434  LAT   Au  974   6.936   5.916   0.204
  435  LAT   Au  975   7.140   5.712   0.204
  436  LAT   Au  976   0.000   6.120   0.000
  437  LAT   Au  977   0.204   6.324   0.000
  438  LAT   Au  978   0.000   6.324   0.204
  439  LAT   Au  979   0.204   6.120   0.204
  440  LAT   Au  980   0.408   6.120   0.000
  441  LAT   Au  981   0.612   6.324   0.000
  442  LAT   Au  982   0.408   6.324   0.204
  443  LAT   Au  983   0.612   6.120   0.204
  444  LAT   Au  984   0.816   6.120   0.000
  445  LAT   Au  985   1.020   6.324   0.000
  446  LAT   Au  986   0.816   6.324   0.204
  447  LAT   Au  987   1.020   6.120   0.204
  448  LAT   Au  988   1.224   6.120   0.000
  449  LAT   Au  989   1.428   6.324   0.000
  450  LAT   Au  990   1.224   6.324   0.204
  451  LAT   Au  991   1.428   6.120   0.204
  452  LAT   Au  992   1.632   6.120   0.000
  453  LAT   Au  993   1.836   6.324   0.000
  454  LAT   Au  994   1.632   6.324   0.204
  455  LAT   Au  995   1.836   6.120   0.204
  456  LAT   Au  996   2.244   6.324   0.000
  457  LAT   Au  997   2.040   6.324   0.204
  458  LAT   Au  998   5.100   6.324   0.000
  459  LAT   Au  999   4.896   6.324   0.204
  460  LAT   Au 1000   5.304   6.120   0.000
  461  LAT   Au 1001   5.508   6.324   0.000
  462  LAT   Au 1002   5.304   6.324   0.204
  463  LAT   Au 1003   5.508   6.120   0.204
  464  LAT   Au 1004   5.712   6.120   0.000
  465  LAT   Au 1005   5.916   6.324   0.000
  466  LAT   Au 1006   5.712   6.324   0.204
  467  LAT   Au 1007   5.916   6.120   0.204
  468  LAT   Au 1008   6.120   6.120   0.000
  469  LAT   Au 1009   6.324   6.324   0.000
  470  LAT   Au 1010   6.120   6.324   0.204
  471  LAT   Au 1011   6.324   6.120   0.204
  472  LAT   Au 1012   6.528   6.120   0.000
  473  LAT   Au 1013   6.732   6.324   0.000
  474  LAT   Au 1014   6.528   6.324   0.204
  475  LAT   Au 1015   6.732   6.120   0.204
  476  LAT   Au 1016   6.936   6.120   0.000
  477  LAT   Au 1017   7.140   6.324   0.000
  478  LAT   Au 1018   6.936   6.324   0.204
  479  LAT   Au 1019   7.140   6.120   0.204
  480  LAT   Au 1020   0.000   6.528   0.000
  481  LAT   Au 1021   0.204   6.732   0.000
  482  LAT   Au 1022   0.000   6.732   0.204
  483  LAT   Au 1023   0.204   6.528   0.204
  484  LAT   Au 1024   0.408   6.528   0.000
  485  LAT   Au 1025   0.612   6.732   0.000
  486  LAT   Au 1026   0.408   6.732   0.204
  487  LAT   Au 1027   0.612   6.528   0.204
  488  LAT   Au 1028   0.816   6.528   0.000
  489  LAT   Au 1029   1.020   6.732   0.000
  490  LAT   Au 1030   0.816   6.732   0.204
  491  LAT   Au 1031   1.020   6.528   0.204
  492  LAT   Au 1032   1.224   6.528   0.000
  493  LAT   Au 1033   1.428   6.732   0.000
  494  LAT   Au 1034   1.224   6.732   0.204
  495  LAT   Au 1035   1.428   6.528   0.204
  496  LAT   Au 1036   1.632   6.528   0.000
  497  LAT   Au 1037   1.836   6.732   0.000
  498  LAT   Au 1038   1.632   6.732   0.204
  499  LAT   Au 1039   1.836   6.528   0.204
  500  LAT   Au 1040   2.040   6.528   0.000
  501  LAT   Au 1041   2.244   6.732   0.000
  502  LAT   Au 1042   2.040   6.732   0.204
  503  LAT   Au 1043   2.244   6.528   0.204
  504  LAT   Au 1044   2.448   6.528   0.000
  505  LAT   Au 1045   2.652   6.732   0.000
  506  LAT   Au 1046   2.448   6.732   0.204
  507  LAT   Au 1047   2.652   6.528   0.204
  508  LAT   Au 1048   2.856   6.528   0.000
  509  LAT   Au 1049   3.060   6.732   0.000
  510  LAT   Au 1050   2.856   6.732   0.204
  511  LAT   Au 1051   3.468   6.732   0.000
  512  LAT   Au 1052   3.264   6.732   0.204
  513  LAT   Au 1053   3.876   6.732   0.000
  514  LAT   Au 1054   3.672   6.732   0.204
  515  LAT   Au 1055   4.284   6.732   0.000
  516  LAT   Au 1056   4.080   6.732   0.204
  517  LAT   Au 1057   4.284   6.528   0.204
  518  LAT   Au 1058   4.488   6.528   0.000
  519  LAT   Au 1059   4.692   6.732   0.000
  520  LAT   Au 1060   4.488   6.732   0.204
  521  LAT   Au 1061   4.692   6.528   0.204
  522  LAT   Au 1062   4.896   6.528   0.000
  523  LAT   Au 1063   5.100   6.732   0.000
  524  LAT   Au 1064   4.896   6.732   0.204
  525  LAT   Au 1065   5.100   6.528   0.204
  526  LAT   Au 1066   5.304   6.528   0.000
  527  LAT   Au 1067   5.508   6.732   0.000
  528  LAT   Au 1068   5.304   6.732   0.204
  529  LAT   Au 1069   5.508   6.528   0.204
  530  LAT   Au 1070   5.712   6.528   0.000
  531  LAT   Au 1071   5.916   6.732   0.000
  532  LAT   Au 1072   5.712   6.732   0.204
  533  LAT   Au 1073   5.916   6.528   0.204
  534  LAT   Au 1074   6.120   6.528   0.000
  535  LAT   Au 1075   6.324   6.732   0.000
  536  LAT   Au 1076   6.120   6.732   0.204
  537  LAT   Au 1077   6.324   6.528   0.204
  538  LAT   Au 1078   6.528   6.528   0.000
  539  LAT   Au 1079   6.732   6.732   0.000
  540  LAT   Au 1080   6.528   6.732   0.204
  541  LAT   Au 1081   6.732   6.528   0.204
  542  LAT   Au 1082   6.936   6.528   0.000
  543  LAT   Au 1083   7.140   6.732   0.000
  544  LAT   Au 1084   6.936   6.732   0.204
  545  LAT   Au 1085   7.140   6.528   0.204
  546  LAT   Au 1086   0.000   6.936   0.000
  547  LAT   Au 1087   0.204   7.140   0.000
  548  LAT   Au 1088   0.000   7.140   0.204
  549  LAT   Au 1089   0.204   6.936   0.204
  550  LAT   Au 1090   0.408   6.936   0.000
  551  LAT   Au 1091   0.612   7.140   0.000
  552  LAT   Au 1092   0.408   7.140   0.204
  553  LAT   Au 1093   0.612   6.936   0.204
  554  LAT   Au 1094   0.816   6.936   0.000
  555  LAT   Au 1095   1.020   7.140   0.000
  556  LAT   Au 1096   0.816   7.140   0.204
  557  LAT   Au 1097   1.020   6.936   0.204
  558  LAT   Au 1098   1.224   6.936   0.000
  559  LAT   Au 1099   1.428   7.140   0.000
  560  LAT   Au 1100   1.224   7.140   0.204
  561  LAT   Au 1101   1.428   6.936   0.204
  562  LAT   Au 1102   1.632   6.936   0.000
  563  LAT   Au 1103   1.836   7.140   0.000
  564  LAT   Au 1104   1.632   7.140   0.204
  565  LAT   Au 1105   1.836   6.936   0.204
  566  LAT   Au 1106   2.040   6.936   0.000
  567  LAT   Au 1107   2.244   7.140   0.000
  568  LAT   Au 1108   2.040   7.140   0.204
  569  LAT   Au 1109   2.244   6.936   0.204
  570  LAT   Au 1110   2.448   6.936   0.000
  571  LAT   Au 1111   2.652   7.140   0.000
  572  LAT   Au 1112   2.448   7.140   0.204
  573  LAT   Au 1113   2.652   6.936   0.204
  574  LAT   Au 1114   2.856   6.936   0.000
  575  LAT   Au 1115   3.060   7.140   0.000
  576  LAT   Au 1116   2.856   7.140   0.204
  577  LAT   Au 1117   3.060   6.936   0.204
  578  LAT   Au 1118   3.264   6.936   0.000
  579  LAT   Au 1119   3.468   7.140   0.000
  580  LAT   Au 1120   3.264   7.140   0.204
  581  LAT   Au 1121   3.468   6.936   0.204
  582  LAT   Au 1122   3.672   6.936   0.000
  583  LAT   Au 1123   3.876   7.140   0.000
  584  LAT   Au 1124   3.672   7.140   0.204
  585  LAT   Au 1125   3.876   6.936   0.204
  586  LAT   Au 1126   4.080   6.936   0.000
  587  LAT   Au 1127   4.284   7.140   0.000
  588  LAT   Au 1128   4.080   7.140   0.204
  589  LAT   Au 1129   4.284   6.936   0.204
  590  LAT   Au 1130   4.488   6.936   0.000
  591  LAT   Au 1131   4.692   7.140   0.000
  592  LAT   Au 1132   4.488   7.140   0.204
  593  LAT   Au 1133   4.692   6.936   0.204
  594  LAT   Au 1134   4.896   6.936   0.000
  595  LAT   Au 1135   5.100   7.140   0.000
  596  LAT   Au 1136   4.896   7.140   0.204
  597  LAT   Au 1137   5.100   6.936   0.204
  598  LAT   Au 1138   5.304   6.936   0.000
  599  LAT   Au 1139   5.508   7.140   0.000
  600  LAT   Au 1140   5.304   7.140   0.204
  601  LAT   Au 1141   5.508   6.936   0.204
  602  LAT   Au 1142   5.712   6.936   0.000
  603  LAT   Au 1143   5.916   7.140   0.000
  604  LAT   Au 1144   5.712   7.140   0.204
  605  LAT   Au 1145   5.916   6.936   0.204
  606  LAT   Au 1146   6.120   6.936   0.000
  607  LAT   Au 1147   6.324   7.140   0.000
  608  LAT   Au 1148   6.120   7.140   0.204
  609  LAT   Au 1149   6.324   6.936   0.204
  610  LAT   Au 1150   6.528   6.936   0.000
  611  LAT   Au 1151   6.732   7.140   0.000
  612  LAT   Au 1152   6.528   7.140   0.204
  613  LAT   Au 1153   6.732   6.936   0.204
  614  LAT   Au 1154   6.936   6.936   0.000
  615  LAT   Au 1155   7.140   7.140   0.000
  616  LAT   Au 1156   6.936   7.140   0.204
  617  LAT   Au 1157   7.140   6.936   0.204
  618  LAT   Au 1158   0.000   0.000   0.408
  619  LAT   Au 1159   0.204   0.204   0.408
  620  LAT   Au 1160   0.000   0.204   0.612
  621  LAT   Au 1161   0.204   0.000   0.612
  622  LAT   Au 1162   0.408   0.000   0.408
  623  LAT   Au 1163   0.612   0.204   0.408
  624  LAT   Au 1164   0.408   0.204   0.612
  625  LAT   Au 1165   0.612   0.000   0.612
  626  LAT   Au 1166   0.816   0.000   0.408
  627  LAT   Au 1167   1.020   0.204   0.408
  628  LAT   Au 1168   0.816   0.204   0.612
  629  LAT   Au 1169   1.020   0.000   0.612
  630  LAT   Au 1170   1.224   0.000   0.408
  631  LAT   Au 1171   1.428   0.204   0.408
  632  LAT   Au 1172   1.224   0.204   0.612
  633  LAT   Au 1173   1.428   0.000   0.612
  634  LAT   Au 1174   1.632   0.000   0.408
  635  LAT   Au 1175   1.836   0.204   0.408
  636  LAT   Au 1176   1.632   0.204   0.612
  637  LAT   Au 1177   1.836   0.000   0.612
  638  LAT   Au 1178   2.040   0.000   0.408
  639  LAT   Au 1179   2.244   0.204   0.408
  640  LAT   Au 1180   2.040   0.204   0.612
  641  LAT   Au 1181   2.244   0.000   0.612
  642  LAT   Au 1182   2.448   0.000   0.408
  643  LAT   Au 1183   2.652   0.204   0.408
  644  LAT   Au 1184   2.448   0.204   0.612
  645  LAT   Au 1185   2.652   0.000   0.612
  646  LAT   Au 1186   2.856   0.000   0.408
  647  LAT   Au 1187   3.060   0.204   0.408
  648  LAT   Au 1188   2.856   0.204   0.612
  649  LAT   Au 1189   3.060   0.000   0.612
  650  LAT   Au 1190   3.264   0.000   0.408
  651  LAT   Au 1191   3.468   0.204   0.408
  652  LAT   Au 1192   3.264   0.204   0.612
  653  LAT   Au 1193   3.468   0.000   0.612
  654  LAT   Au 1194   3.672   0.000   0.408
  655  LAT   Au 1195   3.876   0.204   0.408
  656  LAT   Au 1196   3.672   0.204   0.612
  657  LAT   Au 1197   3.876   0.000   0.612
  658  LAT   Au 1198   4.080   0.000   0.408
  659  LAT   Au 1199   4.284   0.204   0.408
  660  LAT   Au 1200   4.080   0.204   0.612
  661  LAT   Au 1201   4.284   0.000   0.612
  662  LAT   Au 1202   4.488   0.000   0.408
  663  LAT   Au 1203   4.692   0.204   0.408
  664  LAT   Au 1204   4.488   0.204   0.612
  665  LAT   Au 1205   4.692   0.000   0.612
  666  LAT   Au 1206   4.896   0.000   0.408
  667  LAT   Au 1207   5.100   0.204   0.408
  668  LAT   Au 1208   4.896   0.204   0.612
  669  LAT   Au 1209   5.100   0.000   0.612
  670  LAT   Au 1210   5.304   0.000   0.408
  671  LAT   Au 1211   5.508   0.204   0.408
  672  LAT   Au 1212   5.304   0.204   0.612
  673  LAT   Au 1213   5.508   0.000   0.612
  674  LAT   Au 1214   5.712   0.000   0.408
  675  LAT   Au 1215   5.916   0.204   0.408
  676  LAT   Au 1216   5.712   0.204   0.612
  677  LAT   Au 1217   5.916   0.000   0.612
  678  LAT   Au 1218   6.120   0.000   0.408
  679  LAT   Au 1219   6.324   0.204   0.408
  680  LAT   Au 1220   6.120   0.204   0.612
  681  LAT   Au 1221   6.324   0.000   0.612
  682  LAT   Au 1222   6.528   0.000   0.408
  683  LAT   Au 1223   6.732   0.204   0.408
  684  LAT   Au 1224   6.528   0.204   0.612
  685  LAT   Au 1225   6.732   0.000   0.612
  686  LAT   Au 1226   6.936   0.000   0.408
  687  LAT   Au 1227   7.140   0.204   0.408
  688  LAT   Au 1228   6.936   0.204   0.612
  689  LAT   Au 1229   7.140   0.000   0.612
  690  LAT   Au 1230   0.000   0.408   0.408
  691  LAT   Au 1231   0.204   0.612   0.408
  692  LAT   Au 1232   0.000   0.612   0.612
  693  LAT   Au 1233   0.204   0.408   0.612
  694  LAT   Au 1234   0.408   0.408   0.408
  695  LAT   Au 1235   0.612   0.612   0.408
  696  LAT   Au 1236   0.408   0.612   0.612
  697  LAT   Au 1237   0.612   0.408   0.612
  698  LAT   Au 1238   0.816   0.408   0.408
  699  LAT   Au 1239   1.020   0.612   0.408
  700  LAT   Au 1240   0.816   0.612   0.612
  701  LAT   Au 1241   1.020   0.408   0.612
  702  LAT   Au 1242   1.224   0.408   0.408
  703  LAT   Au 1243   1.428   0.612   0.408
  704  LAT   Au 1244   1.224   0.612   0.612
  705  LAT   Au 1245   1.428   0.408   0.612
  706  LAT   Au 1246   1.632   0.408   0.408
  707  LAT   Au 1247   1.836   0.612   0.408
  708  LAT   Au 1248   1.632   0.612   0.612
  709  LAT   Au 1249   1.836   0.408   0.612
  710  LAT   Au 1250   2.040   0.408   0.408
  711  LAT   Au 1251   2.244   0.612   0.408
  712  LAT   Au 1252   2.040   0.612   0.612
  713  LAT   Au 1253   2.244   0.408   0.612
  714  LAT   Au 1254   2.448   0.408   0.408
  715  LAT   Au 1255   2.652   0.612   0.408
  716  LAT   Au 1256   2.448   0.612   0.612
  717  LAT   Au 1257   2.652   0.408   0.612
  718  LAT   Au 1258   2.856   0.408   0.408
  719  LAT   Au 1259   3.060   0.612   0.408
  720  LAT   Au 1260   2.856   0.612   0.612
  721  LAT   Au 1261   3.060   0.408   0.612
  722  LAT   Au 1262   3.264   0.408   0.408
  723  LAT   Au 1263   3.264   0.612   0.612
  724  LAT   Au 1264   3.468   0.408   0.612
  725  LAT   Au 1265   3.672   0.408   0.408
  726  LAT   Au 1266   3.876   0.408   0.612
  727  LAT   Au 1267   4.080   0.408   0.408
  728  LAT   Au 1268   4.284   0.612   0.408
  729  LAT   Au 1269   4.080   0.612   0.612
  730  LAT   Au 1270   4.284   0.408   0.612
  731  LAT   Au 1271   4.488   0.408   0.408
  732  LAT   Au 1272   4.692   0.612   0.408
  733  LAT   Au 1273   4.488   0.612   0.612
  734  LAT   Au 1274   4.692   0.408   0.612
  735  LAT   Au 1275   4.896   0.408   0.408
  736  LAT   Au 1276   5.100   0.612   0.408
  737  LAT   Au 1277   4.896   0.612   0.612
  738  LAT   Au 1278   5.100   0.408   0.612
  739  LAT   Au 1279   5.304   0.408   0.408
  740  LAT   Au 1280   5.508   0.612   0.408
  741  LAT   Au 1281   5.304   0.612   0.612
  742  LAT   Au 1282   5.508   0.408   0.612
  743  LAT   Au 1283   5.712   0.408   0.408
  744  LAT   Au 1284   5.916   0.612   0.408
  745  LAT   Au 1285   5.712   0.612   0.612
  746  LAT   Au 1286   5.916   0.408   0.612
  747  LAT   Au 1287   6.120   0.408   0.408
  748  LAT   Au 1288   6.324   0.612   0.408
  749  LAT   Au 1289   6.120   0.612   0.612
  750  LAT   Au 1290   6.324   0.408   0.612
  751  LAT   Au 1291   6.528   0.408   0.408
  752  LAT   Au 1292   6.732   0.612   0.408
  753  LAT   Au 1293   6.528   0.612   0.612
  754  LAT   Au 1294   6.732   0.408   0.612
  755  LAT   Au 1295   6.936   0.408   0.408
  756  LAT   Au 1296   7.140   0.612   0.408
  757  LAT   Au 1297   6.936   0.612   0.612
  758  LAT   Au 1298   7.140   0.408   0.612
  759  LAT   Au 1299   0.000   0.816   0.408
  760  LAT   Au 1300   0.204   1.020   0.408
  761  LAT   Au 1301   0.000   1.020   0.612
  762  LAT   Au 1302   0.204   0.816   0.612
  763  LAT   Au 1303   0.408   0.816   0.408
  764  LAT   Au 1304   0.612   1.020   0.408
  765  LAT   Au 1305   0.408   1.020   0.612
  766  LAT   Au 1306   0.612   0.816   0.612
  767  LAT   Au 1307   0.816   0.816   0.408
  768  LAT   Au 1308   1.020   1.020   0.408
  769  LAT   Au 1309   0.816   1.020   0.612
  770  LAT   Au 1310   1.020   0.816   0.612
  771  LAT   Au 1311   1.224   0.816   0.408
  772  LAT   Au 1312   1.428   1.020   0.408
  773  LAT   Au 1313   1.224   1.020   0.612
  774  LAT   Au 1314   1.428   0.816   0.612
  775  LAT   Au 1315   1.632   0.816   0.408
  776  LAT   Au 1316   1.836   1.020   0.408
  777  LAT   Au 1317   1.632   1.020   0.612
  778  LAT   Au 1318   1.836   0.816   0.612
  779  LAT   Au 1319   2.040   0.816   0.408
  780  LAT   Au 1320   2.040   1.020   0.612
  781  LAT   Au 1321   2.244   0.816   0.612
  782  LAT   Au 1322   2.448   0.816   0.408
  783  LAT   Au 1323   4.896   0.816   0.408
  784  LAT   Au 1324   5.100   0.816   0.612
  785  LAT   Au 1325   5.304   0.816   0.408
  786  LAT   Au 1326   5.508   1.020   0.408
  787  LAT   Au 1327   5.304   1.020   0.612
  788  LAT   Au 1328   5.508   0.816   0.612
  789  LAT   Au 1329   5.712   0.816   0.408
  790  LAT   Au 1330   5.916   1.020   0.408
  791  LAT   Au 1331   5.712   1.020   0.612
  792  LAT   Au 1332   5.916   0.816   0.612
  793  LAT   Au 1333   6.120   0.816   0.408
  794  LAT   Au 1334   6.324   1.020   0.408
  795  LAT   Au 1335   6.120   1.020   0.612
  796  LAT   Au 1336   6.324   0.816   0.612
  797  LAT   Au 1337   6.528   0.816   0.408
  798  LAT   Au 1338   6.732   1.020   0.408
  799  LAT   Au 1339   6.528   1.020   0.612
  800  LAT   Au 1340   6.732   0.816   0.612
  801  LAT   Au 1341   6.936   0.816   0.408
  802  LAT   Au 1342   7.140   1.020   0.408
  803  LAT   Au 1343   6.936   1.020   0.612
  804  LAT   Au 1344   7.140   0.816   0.612
  805  LAT   Au 1345   0.000   1.224   0.408
  806  LAT   Au 1346   0.204   1.428   0.408
  807  LAT   Au 1347   0.000   1.428   0.612
  808  LAT   Au 1348   0.204   1.224   0.612
  809  LAT   Au 1349   0.408   1.224   0.408
  810  LAT   Au 1350   0.612   1.428   0.408
  811  LAT   Au 1351   0.408   1.428   0.612
  812  LAT   Au 1352   0.612   1.224   0.612
  813  LAT   Au 1353   0.816   1.224   0.408
  814  LAT   Au 1354   1.020   1.428   0.408
  815  LAT   Au 1355   0.816   1.428   0.612
  816  LAT   Au 1356   1.020   1.224   0.612
  817  LAT   Au 1357   1.224   1.224   0.408
  818  LAT   Au 1358   1.428   1.428   0.408
  819  LAT   Au 1359   1.224   1.428   0.612
  820  LAT   Au 1360   1.428   1.224   0.612
  821  LAT   Au 1361   1.632   1.224   0.408
  822  LAT   Au 1362   5.508   1.224   0.612
  823  LAT   Au 1363   5.712   1.224   0.408
  824  LAT   Au 1364   5.916   1.428   0.408
  825  LAT   Au 1365   5.712   1.428   0.612
  826  LAT   Au 1366   5.916   1.224   0.612
  827  LAT   Au 1367   6.120   1.224   0.408
  828  LAT   Au 1368   6.324   1.428   0.408
  829  LAT   Au 1369   6.120   1.428   0.612
  830  LAT   Au 1370   6.324   1.224   0.612
  831  LAT   Au 1371   6.528   1.224   0.408
  832  LAT   Au 1372   6.732   1.428   0.408
  833  LAT   Au 1373   6.528   1.428   0.612
  834  LAT   Au 1374   6.732   1.224   0.612
  835  LAT   Au 1375   6.936   1.224   0.408
  836  LAT   Au 1376   7.140   1.428   0.408
  837  LAT   Au 1377   6.936   1.428   0.612
  838  LAT   Au 1378   7.140   1.224   0.612
  839  LAT   Au 1379   0.000   1.632   0.408
  840  LAT   Au 1380   0.204   1.836   0.408
  841  LAT   Au 1381   0.000   1.836   0.612
  842  LAT   Au 1382   0.204   1.632   0.612
  843  LAT   Au 1383   0.408   1.632   0.408
  844  LAT   Au 1384   0.612   1.836   0.408
  845  LAT   Au 1385   0.408   1.836   0.612
  846  LAT   Au 1386   0.612   1.632   0.612
  847  LAT   Au 1387   0.816   1.632   0.408
  848  LAT   Au 1388   1.020   1.836   0.408
  849  LAT   Au 1389   0.816   1.836   0.612
  850  LAT   Au 1390   1.020   1.632   0.612
  851  LAT   Au 1391   1.224   1.632   0.408
  852  LAT   Au 1392   5.916   1.632   0.612
  853  LAT   Au 1393   6.120   1.632   0.408
  854  LAT   Au 1394   6.324   1.836   0.408
  855  LAT   Au 1395   6.120   1.836   0.612
  856  LAT   Au 1396   6.324   1.632   0.612
  857  LAT   Au 1397   6.528   1.632   0.408
  858  LAT   Au 1398   6.732   1.836   0.408
  859  LAT   Au 1399   6.528   1.836   0.612
  860  LAT   Au 1400   6.732   1.632   0.612
  861  LAT   Au 1401   6.936   1.632   0.408
  862  LAT   Au 1402   7.140   1.836   0.408
  863  LAT   Au 1403   6.936   1.836   0.612
  864  LAT   Au 1404   7.140   1.632   0.612
  865  LAT   Au 1405   0.000   2.040   0.408
  866  LAT   Au 1406   0.204   2.244   0.408
  867  LAT   Au 1407   0.000   2.244   0.612
  868  LAT   Au 1408   0.204   2.040   0.612
  869  LAT   Au 1409   0.408   2.040   0.408
  870  LAT   Au 1410   0.612   2.244   0.408
  871  LAT   Au 1411   0.408   2.244   0.612
  872  LAT   Au 1412   0.612   2.040   0.612
  873  LAT   Au 1413   0.816   2.040   0.408
  874  LAT   Au 1414   0.816   2.244   0.612
  875  LAT   Au 1415   1.020   2.040   0.612
  876  LAT   Au 1416   6.324   2.244   0.408
  877  LAT   Au 1417   6.324   2.040   0.612
  878  LAT   Au 1418   6.528   2.040   0.408
  879  LAT   Au 1419   6.732   2.244   0.408
  880  LAT   Au 1420   6.528   2.244   0.612
  881  LAT   Au 1421   6.732   2.040   0.612
  882  LAT   Au 1422   6.936   2.040   0.408
  883  LAT   Au 1423   7.140   2.244   0.408
  884  LAT   Au 1424   6.936   2.244   0.612
  885  LAT   Au 1425   7.140   2.040   0.612
  886  LAT   Au 1426   0.000   2.448   0.408
  887  LAT   Au 1427   0.204   2.652   0.408
  888  LAT   Au 1428   0.000   2.652   0.612
  889  LAT   Au 1429   0.204   2.448   0.612
  890  LAT   Au 1430   0.408   2.448   0.408
  891  LAT   Au 1431   0.612   2.652   0.408
  892  LAT   Au 1432   0.408   2.652   0.612
  893  LAT   Au 1433   0.612   2.448   0.612
  894  LAT   Au 1434   0.816   2.448   0.408
  895  LAT   Au 1435   6.528   2.448   0.408
  896  LAT   Au 1436   6.732   2.652   0.408
  897  LAT   Au 1437   6.528   2.652   0.612
  898  LAT   Au 1438   6.732   2.448   0.612
  899  LAT   Au 1439   6.936   2.448   0.408
  900  LAT   Au 1440   7.140   2.652   0.408
  901  LAT   Au 1441   6.936   2.652   0.612
  902  LAT   Au 1442   7.140   2.448   0.612
  903  LAT   Au 1443   0.000   2.856   0.408
  904  LAT   Au 1444   0.204   3.060   0.408
  905  LAT   Au 1445   0.000   3.060   0.612
  906  LAT   Au 1446   0.204   2.856   0.612
  907  LAT   Au 1447   0.408   2.856   0.408
  908  LAT   Au 1448   0.612   3.060   0.408
  909  LAT   Au 1449   0.408   3.060   0.612
  910  LAT   Au 1450   0.612   2.856   0.612
  911  LAT   Au 1451   6.528   2.856   0.408
  912  LAT   Au 1452   6.732   3.060   0.408
  913  LAT   Au 1453   6.732   2.856   0.612
  914  LAT   Au 1454   6.936   2.856   0.408
  915  LAT   Au 1455   7.140   3.060   0.408
  916  LAT   Au 1456   6.936   3.060   0.612
  917  LAT   Au 1457   7.140   2.856   0.612
  918  LAT   Au 1458   0.000   3.264   0.408
  919  LAT   Au 1459   0.204   3.468   0.408
  920  LAT   Au 1460   0.000   3.468   0.612
  921  LAT   Au 1461   0.204   3.264   0.612
  922  LAT   Au 1462   0.408   3.264   0.408
  923  LAT   Au 1463   0.408   3.468   0.612
  924  LAT   Au 1464   0.612   3.264   0.612
  925  LAT   Au 1465   6.732   3.468   0.408
  926  LAT   Au 1466   6.732   3.264   0.612
  927  LAT   Au 1467   6.936   3.264   0.408
  928  LAT   Au 1468   7.140   3.468   0.408
  929  LAT   Au 1469   6.936   3.468   0.612
  930  LAT   Au 1470   7.140   3.264   0.612
  931  LAT   Au 1471   0.000   3.672   0.408
  932  LAT   Au 1472   0.204   3.876   0.408
  933  LAT   Au 1473   0.000   3.876   0.612
  934  LAT   Au 1474   0.204   3.672   0.612
  935  LAT   Au 1475   0.408   3.672   0.408
  936  LAT   Au 1476   0.408   3.876   0.612
  937  LAT   Au 1477   6.732   3.876   0.408
  938  LAT   Au 1478   6.732   3.672   0.612
  939  LAT   Au 1479   6.936   3.672   0.408
  940  LAT   Au 1480   7.140   3.876   0.408
  941  LAT   Au 1481   6.936   3.876   0.612
  942  LAT   Au 1482   7.140   3.672   0.612
  943  LAT   Au 1483   0.000   4.080   0.408
  944  LAT   Au 1484   0.204   4.284   0.408
  945  LAT   Au 1485   0.000   4.284   0.612
  946  LAT   Au 1486   0.204   4.080   0.612
  947  LAT   Au 1487   0.408   4.080   0.408
  948  LAT   Au 1488   0.612   4.284   0.408
  949  LAT   Au 1489   0.408   4.284   0.612
  950  LAT   Au 1490   0.612   4.080   0.612
  951  LAT   Au 1491   6.732   4.284   0.408
  952  LAT   Au 1492   6.528   4.284   0.612
  953  LAT   Au 1493   6.732   4.080   0.612
  954  LAT   Au 1494   6.936   4.080   0.408
  955  LAT   Au 1495   7.140   4.284   0.408
  956  LAT   Au 1496   6.936   4.284   0.612
  957  LAT   Au 1497   7.140   4.080   0.612
  958  LAT   Au 1498   0.000   4.488   0.408
  959  LAT   Au 1499   0.204   4.692   0.408
  960  LAT   Au 1500   0.000   4.692   0.612
  961  LAT   Au 1501   0.204   4.488   0.612
  962  LAT   Au 1502   0.408   4.488   0.408
  963  LAT   Au 1503   0.612   4.692   0.408
  964  LAT   Au 1504   0.408   4.692   0.612
  965  LAT   Au 1505   0.612   4.488   0.612
  966  LAT   Au 1506   6.528   4.488   0.408
  967  LAT   Au 1507   6.732   4.692   0.408
  968  LAT   Au 1508   6.528   4.692   0.612
  969  LAT   Au 1509   6.732   4.488   0.612
  970  LAT   Au 1510   6.936   4.488   0.408
  971  LAT   Au 1511   7.140   4.692   0.408
  972  LAT   Au 1512   6.936   4.692   0.612
  973  LAT   Au 1513   7.140   4.488   0.612
  974  LAT   Au 1514   0.000   4.896   0.408
  975  LAT   Au 1515   0.204   5.100   0.408
  976  LAT   Au 1516   0.000   5.100   0.612
  977  LAT   Au 1517   0.204   4.896   0.612
  978  LAT   Au 1518   0.408   4.896   0.408
  979  LAT   Au 1519   0.612   5.100   0.408
  980  LAT   Au 1520   0.408   5.100   0.612
  981  LAT   Au 1521   0.612   4.896   0.612
  982  LAT   Au 1522   0.816   4.896   0.408
  983  LAT   Au 1523   0.816   5.100   0.612
  984  LAT   Au 1524   6.324   5.100   0.408
  985  LAT   Au 1525   6.324   4.896   0.612
  986  LAT   Au 1526   6.528   4.896   0.408
  987  LAT   Au 1527   6.732   5.100   0.408
  988  LAT   Au 1528   6.528   5.100   0.612
  989  LAT   Au 1529   6.732   4.896   0.612
  990  LAT   Au 1530   6.936   4.896   0.408
  991  LAT   Au 1531   7.140   5.100   0.408
  992  LAT   Au 1532   6.936   5.100   0.612
  993  LAT   Au 1533   7.140   4.896   0.612
  994  LAT   Au 1534   0.000   5.304   0.408
  995  LAT   Au 1535   0.204   5.508   0.408
  996  LAT   Au 1536   0.000   5.508   0.612
  997  LAT   Au 1537   0.204   5.304   0.612
  998  LAT   Au 1538   0.408   5.304   0.408
  999  LAT   Au 1539   0.612   5.508   0.408
 1000  LAT   Au 1540   0.408   5.508   0.612
 1001  LAT   Au 1541   0.612   5.304   0.612
 1002  LAT   Au 1542   0.816   5.304   0.408
 1003  LAT   Au 1543   1.020   5.508   0.408
 1004  LAT   Au 1544   0.816   5.508   0.612
 1005  LAT   Au 1545   1.020   5.304   0.612
 1006  LAT   Au 1546   1.224   5.508   0.612
 1007  LAT   Au 1547   5.916   5.508   0.408
 1008  LAT   Au 1548   6.120   5.304   0.408
 1009  LAT   Au 1549   6.324   5.508   0.408
 1010  LAT   Au 1550   6.120   5.508   0.612
 1011  LAT   Au 1551   6.324   5.304   0.612
 1012  LAT   Au 1552   6.528   5.304   0.408
 1013  LAT   Au 1553   6.732   5.508   0.408
 1014  LAT   Au 1554   6.528   5.508   0.612
 1015  LAT   Au 1555   6.732   5.304   0.612
 1016  LAT   Au 1556   6.936   5.304   0.408
 1017  LAT   Au 1557   7.140   5.508   0.408
 1018  LAT   Au 1558   6.936   5.508   0.612
 1019  LAT   Au 1559   7.140   5.304   0.612
 1020  LAT   Au 1560   0.000   5.712   0.408
 1021  LAT   Au 1561   0.204   5.916   0.408
 1022  LAT   Au 1562   0.000   5.916   0.612
 1023  LAT   Au 1563   0.204   5.712   0.612
 1024  LAT   Au 1564   0.408   5.712   0.408
 1025  LAT   Au 1565   0.612   5.916   0.408
 1026  LAT   Au 1566   0.408   5.916   0.612
 1027  LAT   Au 1567   0.612   5.712   0.612
 1028  LAT   Au 1568   0.816   5.712   0.408
 1029  LAT   Au 1569   1.020   5.916   0.408
 1030  LAT   Au 1570   0.816   5.916   0.612
 1031  LAT   Au 1571   1.020   5.712   0.612
 1032  LAT   Au 1572   1.224   5.712   0.408
 1033  LAT   Au 1573   1.428   5.916   0.408
 1034  LAT   Au 1574   1.224   5.916   0.612
 1035  LAT   Au 1575   1.428   5.712   0.612
 1036  LAT   Au 1576   1.632   5.916   0.612
 1037  LAT   Au 1577   5.508   5.916   0.408
 1038  LAT   Au 1578   5.916   5.916   0.408
 1039  LAT   Au 1579   5.712   5.916   0.612
 1040  LAT   Au 1580   5.916   5.712   0.612
 1041  LAT   Au 1581   6.120   5.712   0.408
 1042  LAT   Au 1582   6.324   5.916   0.408
 1043  LAT   Au 1583   6.120   5.916   0.612
 1044  LAT   Au 1584   6.324   5.712   0.612
 1045  LAT   Au 1585   6.528   5.712   0.408
 1046  LAT   Au 1586   6.732   5.916   0.408
 1047  LAT   Au 1587   6.528   5.916   0.612
 1048  LAT   Au 1588   6.732   5.712   0.612
 1049  LAT   Au 1589   6.936   5.712   0.408
 1050  LAT   Au 1590   7.140   5.916   0.408
 1051  LAT   Au 1591   6.936   5.916   0.612
 1052  LAT   Au 1592   7.140   5.712   0.612
 1053  LAT   Au 1593   0.000   6.120   0.408
 1054  LAT   Au 1594   0.204   6.324   0.408
 1055  LAT   Au 1595   0.000   6.324   0.612
 1056  LAT   Au 1596   0.204   6.120   0.612
 1057  LAT   Au 1597   0.408   6.120   0.408
 1058  LAT   Au 1598   0.612   6.324   0.408
 1059  LAT   Au 1599   0.408   6.324   0.612
 1060  LAT   Au 1600   0.612   6.120   0.612
 1061  LAT   Au 1601   0.816   6.120   0.408
 1062  LAT   Au 1602   1.020   6.324   0.408
 1063  LAT   Au 1603   0.816   6.324   0.612
 1064  LAT   Au 1604   1.020   6.120   0.612
 1065  LAT   Au 1605   1.224   6.120   0.408
 1066  LAT   Au 1606   1.428   6.324   0.408
 1067  LAT   Au 1607   1.224   6.324   0.612
 1068  LAT   Au 1608   1.428   6.120   0.612
 1069  LAT   Au 1609   1.632   6.120   0.408
 1070  LAT   Au 1610   1.836   6.324   0.408
 1071  LAT   Au 1611   1.632   6.324   0.612
 1072  LAT   Au 1612   1.836   6.120   0.612
 1073  LAT   Au 1613   2.244   6.324   0.408
 1074  LAT   Au 1614   2.040   6.324   0.612
 1075  LAT   Au 1615   5.100   6.324   0.408
 1076  LAT   Au 1616   4.896   6.324   0.612
 1077  LAT   Au 1617   5.304   6.120   0.408
 1078  LAT   Au 1618   5.508   6.324   0.408
 1079  LAT   Au 1619   5.304   6.324   0.612
 1080  LAT   Au 1620   5.508   6.120   0.612
 1081  LAT   Au 1621   5.712   6.120   0.408
 1082  LAT   Au 1622   5.916   6.324   0.408
 1083  LAT   Au 1623   5.712   6.324   0.612
 1084  LAT   Au 1624   5.916   6.120   0.612
 1085  LAT   Au 1625   6.120   6.120   0.408
 1086  LAT   Au 1626   6.324   6.324   0.408
 1087  LAT   Au 1627   6.120   6.324   0.612
 1088  LAT   Au 1628   6.324   6.120   0.612
 1089  LAT   Au 1629   6.528   6.120   0.408
 1090  LAT   Au 1630   6.732   6.324   0.408
 1091  LAT   Au 1631   6.528   6.324   0.612
 1092  LAT   Au 1632   6.732   6.120   0.612
 1093  LAT   Au 1633   6.936   6.120   0.408
 1094  LAT   Au 1634   7.140   6.324   0.408
 1095  LAT   Au 1635   6.936   6.324   0.612
 1096  LAT   Au 1636   7.140   6.120   0.612
 1097  LAT   Au 1637   0.000   6.528   0.408
 1098  LAT   Au 1638   0.204   6.732   0.408
 1099  LAT   Au 1639   0.000   6.732   0.612
 1100  LAT   Au 1640   0.204   6.528   0.612
 1101  LAT   Au 1641   0.408   6.528   0.408
 1102  LAT   Au 1642   0.612   6.732   0.408
 1103  LAT   Au 1643   0.408   6.732   0.612
 1104  LAT   Au 1644   0.612   6.528   0.612
 1105  LAT   Au 1645   0.816   6.528   0.408
 1106  LAT   Au 1646   1.020   6.732   0.408
 1107  LAT   Au 1647   0.816   6.732   0.612
 1108  LAT   Au 1648   1.020   6.528   0.612
 1109  LAT   Au 1649   1.224   6.528   0.408
 1110  LAT   Au 1650   1.428   6.732   0.408
 1111  LAT   Au 1651   1.224   6.732   0.612
 1112  LAT   Au 1652   1.428   6.528   0.612
 1113  LAT   Au 1653   1.632   6.528   0.408
 1114  LAT   Au 1654   1.836   6.732   0.408
 1115  LAT   Au 1655   1.632   6.732   0.612
 1116  LAT   Au 1656   1.836   6.528   0.612
 1117  LAT   Au 1657   2.040   6.528   0.408
 1118  LAT   Au 1658   2.244   6.732   0.408
 1119  LAT   Au 1659   2.040   6.732   0.612
 1120  LAT   Au 1660   2.244   6.528   0.612
 1121  LAT   Au 1661   2.448   6.528   0.408
 1122  LAT   Au 1662   2.652   6.732   0.408
 1123  LAT   Au 1663   2.448   6.732   0.612
 1124  LAT   Au 1664   2.652   6.528   0.612
 1125  LAT   Au 1665   2.856   6.528   0.408
 1126  LAT   Au 1666   3.060   6.732   0.408
 1127  LAT   Au 1667   2.856   6.732   0.612
 1128  LAT   Au 1668   3.468   6.732   0.408
 1129  LAT   Au 1669   3.264   6.732   0.612
 1130  LAT   Au 1670   3.876   6.732   0.408
 1131  LAT   Au 1671   3.672   6.732   0.612
 1132  LAT   Au 1672   4.284   6.732   0.408
 1133  LAT   Au 1673   4.080   6.732   0.612
 1134  LAT   Au 1674   4.284   6.528   0.612
 1135  LAT   Au 1675   4.488   6.528   0.408
 1136  LAT   Au 1676   4.692   6.732   0.408
 1137  LAT   Au 1677   4.488   6.732   0.612
 1138  LAT   Au 1678   4.692   6.528   0.612
 1139  LAT   Au 1679   4.896   6.528   0.408
 1140  LAT   Au 1680   5.100   6.732   0.408
 1141  LAT   Au 1681   4.896   6.732   0.612
 1142  LAT   Au 1682   5.100   6.528   0.612
 1143  LAT   Au 1683   5.304   6.528   0.408
 1144  LAT   Au 1684   5.508   6.732   0.408
 1145  LAT   Au 1685   5.304   6.732   0.612
 1146  LAT   Au 1686   5.508   6.528   0.612
 1147  LAT   Au 1687   5.712   6.528   0.408
 1148  LAT   Au 1688   5.916   6.732   0.408
 1149  LAT   Au 1689   5.712   6.732   0.612
 1150  LAT   Au 1690   5.916   6.528   0.612
 1151  LAT   Au 1691   6.120   6.528   0.408
 1152  LAT   Au 1692   6.324   6.732   0.408
 1153  LAT   Au 1693   6.120   6.732   0.612
 1154  LAT   Au 1694   6.324   6.528   0.612
 1155  LAT   Au 1695   6.528   6.528   0.408
 1156  LAT   Au 1696   6.732   6.732   0.408
 1157  LAT   Au 1697   6.528   6.732   0.612
 1158  LAT   Au 1698   6.732   6.528   0.612
 1159  LAT   Au 1699   6.936   6.528   0.408
 1160  LAT   Au 1700   7.140   6.732   0.408
 1161  LAT   Au 1701   6.936   6.732   0.612
 1162  LAT   Au 1702   7.140   6.528   0.612
 1163  LAT   Au 1703   0.000   6.936   0.408
 1164  LAT   Au 1704   0.204   7.140   0.408
 1165  LAT   Au 1705   0.000   7.140   0.612
 1166  LAT   Au 1706   0.204   6.936   0.612
 1167  LAT   Au 1707   0.408   6.936   0.408
 1168  LAT   Au 1708   0.612   7.140   0.408
 1169  LAT   Au 1709   0.408   7.140   0.612
 1170  LAT   Au 1710   0.612   6.936   0.612
 1171  LAT   Au 1711   0.816   6.936   0.408
 1172  LAT   Au 1712   1.020   7.140   0.408
 1173  LAT   Au 1713   0.816   7.140   0.612
 1174  LAT   Au 1714   1.020   6.936   0.612
 1175  LAT   Au 1715   1.224   6.936   0.408
 1176  LAT   Au 1716   1.428   7.140   0.408
 1177  LAT   Au 1717   1.224   7.140   0.612
 1178  LAT   Au 1718   1.428   6.936   0.612
 1179  LAT   Au 1719   1.632   6.936   0.408
 1180  LAT   Au 1720   1.836   7.140   0.408
 1181  LAT   Au 1721   1.632   7.140   0.612
 1182  LAT   Au 1722   1.836   6.936   0.612
 1183  LAT   Au 1723   2.040   6.936   0.408
 1184  LAT   Au 1724   2.244   7.140   0.408
 1185  LAT   Au 1725   2.040   7.140   0.612
 1186  LAT   Au 1726   2.244   6.936   0.612
 1187  LAT   Au 1727   2.448   6.936   0.408
 1188  LAT   Au 1728   2.652   7.140   0.408
 1189  LAT   Au 1729   2.448   7.140   0.612
 1190  LAT   Au 1730   2.652   6.936   0.612
 1191  LAT   Au 1731   2.856   6.936   0.408
 1192  LAT   Au 1732   3.060   7.140   0.408
 1193  LAT   Au 1733   2.856   7.140   0.612
 1194  LAT   Au 1734   3.060   6.936   0.612
 1195  LAT   Au 1735   3.264   6.936   0.408
 1196  LAT   Au 1736   3.468   7.140   0.408
 1197  LAT   Au 1737   3.264   7.140   0.612
 1198  LAT   Au 1738   3.468   6.936   0.612
 1199  LAT   Au 1739   3.672   6.936   0.408
 1200  LAT   Au 1740   3.876   7.140   0.408
 1201  LAT   Au 1741   3.672   7.140   0.612
 1202  LAT   Au 1742   3.876   6.936   0.612
 1203  LAT   Au 1743   4.080   6.936   0.408
 1204  LAT   Au 1744   4.284   7.140   0.408
 1205  LAT   Au 1745   4.080   7.140   0.612
 1206  LAT   Au 1746   4.284   6.936   0.612
 1207  LAT   Au 1747   4.488   6.936   0.408
 1208  LAT   Au 1748   4.692   7.140   0.408
 1209  LAT   Au 1749   4.488   7.140   0.612
 1210  LAT   Au 1750   4.692   6.936   0.612
 1211  LAT   Au 1751   4.896   6.936   0.408
 1212  LAT   Au 1752   5.100   7.140   0.408
 1213  LAT   Au 1753   4.896   7.140   0.612
 1214  LAT   Au 1754   5.100   6.936   0.612
 1215  LAT   Au 1755   5.304   6.936   0.408
 1216  LAT   Au 1756   5.508   7.140   0.408
 1217  LAT   Au 1757   5.304   7.140   0.612
 1218  LAT   Au 1758   5.508   6.936   0.612
 1219  LAT   Au 1759   5.712   6.936   0.408
 1220  LAT   Au 1760   5.916   7.140   0.408
 1221  LAT   Au 1761   5.712   7.140   0.612
 1222  LAT   Au 1762   5.916   6.936   0.612
 1223  LAT   Au 1763   6.120   6.936   0.408
 1224  LAT   Au 1764   6.324   7.140   0.408
 1225  LAT   Au 1765   6.120   7.140   0.612
 1226  LAT   Au 1766   6.324   6.936   0.612
 1227  LAT   Au 1767   6.528   6.936   0.408
 1228  LAT   Au 1768   6.732   7.140   0.408
 1229  LAT   Au 1769   6.528   7.140   0.612
 1230  LAT   Au 1770   6.732   6.936   0.612
 1231  LAT   Au 1771   6.936   6.936   0.408
 1232  LAT   Au 1772   7.140   7.140   0.408
 1233  LAT   Au 1773   6.936   7.140   0.612
 1234  LAT   Au 1774   7.140   6.936   0.612
 1235  LAT   Au 1775   0.000   0.000   0.816
 1236  LAT   Au 1776   0.204   0.204   0.816
 1237  LAT   Au 1777   0.000   0.204   1.020
 1238  LAT   Au 1778   0.204   0.000   1.020
 1239  LAT   Au 1779   0.408   0.000   0.816
 1240  LAT   Au 1780   0.612   0.204   0.816
 1241  LAT   Au 1781   0.408   0.204   1.020
 1242  LAT   Au 1782   0.612   0.000   1.020
 1243  LAT   Au 1783   0.816   0.000   0.816
 1244  LAT   Au 1784   1.020   0.204   0.816
 1245  LAT   Au 1785   0.816   0.204   1.020
 1246  LAT   Au 1786   1.020   0.000   1.020
 1247  LAT   Au 1787   1.224   0.000   0.816
 1248  LAT   Au 1788   1.428   0.204   0.816
 1249  LAT   Au 1789   1.224   0.204   1.020
 1250  LAT   Au 1790   1.428   0.000   1.020
 1251  LAT   Au 1791   1.632   0.000   0.816
 1252  LAT   Au 1792   1.836   0.204   0.816
 1253  LAT   Au 1793   1.632   0.204   1.020
 1254  LAT   Au 1794   1.836   0.000   1.020
 1255  LAT   Au 1795   2.040   0.000   0.816
 1256  LAT   Au 1796   2.244   0.204   0.816
 1257  LAT   Au 1797   2.040   0.204   1.020
 1258  LAT   Au 1798   2.244   0.000   1.020
 1259  LAT   Au 1799   2.448   0.000   0.816
 1260  LAT   Au 1800   2.652   0.204   0.816
 1261  LAT   Au 1801   2.448   0.204   1.020
 1262  LAT   Au 1802   2.652   0.000   1.020
 1263  LAT   Au 1803   2.856   0.000   0.816
 1264  LAT   Au 1804   3.060   0.204   0.816
 1265  LAT   Au 1805   2.856   0.204   1.020
 1266  LAT   Au 1806   3.060   0.000   1.020
 1267  LAT   Au 1807   3.264   0.000   0.816
 1268  LAT   Au 1808   3.468   0.204   0.816
 1269  LAT   Au 1809   3.264   0.204   1.020
 1270  LAT   Au 1810   3.468   0.000   1.020
 1271  LAT   Au 1811   3.672   0.000   0.816
 1272  LAT   Au 1812   3.876   0.204   0.816
 1273  LAT   Au 1813   3.672   0.204   1.020
 1274  LAT   Au 1814   3.876   0.000   1.020
 1275  LAT   Au 1815   4.080   0.000   0.816
 1276  LAT   Au 1816   4.284   0.204   0.816
 1277  LAT   Au 1817   4.080   0.204   1.020
 1278  LAT   Au 1818   4.284   0.000   1.020
 1279  LAT   Au 1819   4.488   0.000   0.816
 1280  LAT   Au 1820   4.692   0.204   0.816
 1281  LAT   Au 1821   4.488   0.204   1.020
 1282  LAT   Au 1822   4.692   0.000   1.020
 1283  LAT   Au 1823   4.896   0.000   0.816
 1284  LAT   Au 1824   5.100   0.204   0.816
 1285  LAT   Au 1825   4.896   0.204   1.020
 1286  LAT   Au 1826   5.100   0.000   1.020
 1287  LAT   Au 1827   5.304   0.000   0.816
 1288  LAT   Au 1828   5.508   0.204   0.816
 1289  LAT   Au 1829   5.304   0.204   1.020
 1290  LAT   Au 1830   5.508   0.000   1.020
 1291  LAT   Au 1831   5.712   0.000   0.816
 1292  LAT   Au 1832   5.916   0.204   0.816
 1293  LAT   Au 1833   5.712   0.204   1.020
 1294  LAT   Au 1834   5.916   0.000   1.020
 1295  LAT   Au 1835   6.120   0.000   0.816
 1296  LAT   Au 1836   6.324   0.204   0.816
 1297  LAT   Au 1837   6.120   0.204   1.020
 1298  LAT   Au 1838   6.324   0.000   1.020
 1299  LAT   Au 1839   6.528   0.000   0.816
 1300  LAT   Au 1840   6.732   0.204   0.816
 1301  LAT   Au 1841   6.528   0.204   1.020
 1302  LAT   Au 1842   6.732   0.000   1.020
 1303  LAT   Au 1843   6.936   0.000   0.816
 1304  LAT   Au 1844   7.140   0.204   0.816
 1305  LAT   Au 1845   6.936   0.204   1.020
 1306  LAT   Au 1846   7.140   0.000   1.020
 1307  LAT   Au 1847   0.000   0.408   0.816
 1308  LAT   Au 1848   0.204   0.612   0.816
 1309  LAT   Au 1849   0.000   0.612   1.020
 1310  LAT   Au 1850   0.204   0.408   1.020
 1311  LAT   Au 1851   0.408   0.408   0.816
 1312  LAT   Au 1852   0.612   0.612   0.816
 1313  LAT   Au 1853   0.408   0.612   1.020
 1314  LAT   Au 1854   0.612   0.408   1.020
 1315  LAT   Au 1855   0.816   0.408   0.816
 1316  LAT   Au 1856   1.020   0.612   0.816
 1317  LAT   Au 1857   0.816   0.612   1.020
 1318  LAT   Au 1858   1.020   0.408   1.020
 1319  LAT   Au 1859   1.224   0.408   0.816
 1320  LAT   Au 1860   1.428   0.612   0.816
 1321  LAT   Au 1861   1.224   0.612   1.020
 1322  LAT   Au 1862   1.428   0.408   1.020
 1323  LAT   Au 1863   1.632   0.408   0.816
 1324  LAT   Au 1864   1.836   0.612   0.816
 1325  LAT   Au 1865   1.632   0.612   1.020
 1326  LAT   Au 1866   1.836   0.408   1.020
 1327  LAT   Au 1867   2.040   0.408   0.816
 1328  LAT   Au 1868   2.244   0.612   0.816
 1329  LAT   Au 1869   2.040   0.612   1.020
 1330  LAT   Au 1870   2.244   0.408   1.020
 1331  LAT   Au 1871   2.448   0.408   0.816
 1332  LAT   Au 1872   2.652   0.612   0.816
 1333  LAT   Au 1873   2.448   0.612   1.020
 1334  LAT   Au 1874   2.652   0.408   1.020
 1335  LAT   Au 1875   2.856   0.408   0.816
 1336  LAT   Au 1876   3.060   0.612   0.816
 1337  LAT   Au 1877   2.856   0.612   1.020
 1338  LAT   Au 1878   3.060   0.408   1.020
 1339  LAT   Au 1879   3.264   0.408   0.816
 1340  LAT   Au 1880   3.264   0.612   1.020
 1341  LAT   Au 1881   3.468   0.408   1.020
 1342  LAT   Au 1882   3.672   0.408   0.816
 1343  LAT   Au 1883   3.876   0.408   1.020
 1344  LAT   Au 1884   4.080   0.408   0.816
 1345  LAT   Au 1885   4.284   0.612   0.816
 1346  LAT   Au 1886   4.080   0.612   1.020
 1347  LAT   Au 1887   4.284   0.408   1.020
 1348  LAT   Au 1888   4.488   0.408   0.816
 1349  LAT   Au 1889   4.692   0.612   0.816
 1350  LAT   Au 1890   4.488   0.612   1.020
 1351  LAT   Au 1891   4.692   0.408   1.020
 1352  LAT   Au 1892   4.896   0.408   0.816
 1353  LAT   Au 1893   5.100   0.612   0.816
 1354  LAT   Au 1894   4.896   0.612   1.020
 1355  LAT   Au 1895   5.100   0.408   1.020
 1356  LAT   Au 1896   5.304   0.408   0.816
 1357  LAT   Au 1897   5.508   0.612   0.816
 1358  LAT   Au 1898   5.304   0.612   1.020
 1359  LAT   Au 1899   5.508   0.408   1.020
 1360  LAT   Au 1900   5.712   0.408   0.816
 1361  LAT   Au 1901   5.916   0.612   0.816
 1362  LAT   Au 1902   5.712   0.612   1.020
 1363  LAT   Au 1903   5.916   0.408   1.020
 1364  LAT   Au 1904   6.120   0.408   0.816
 1365  LAT   Au 1905   6.324   0.612   0.816
 1366  LAT   Au 1906   6.120   0.612   1.020
 1367  LAT   Au 1907   6.324   0.408   1.020
 1368  LAT   Au 1908   6.528   0.408   0.816
 1369  LAT   Au 1909   6.732   0.612   0.816
 1370  LAT   Au 1910   6.528   0.612   1.020
 1371  LAT   Au 1911   6.732   0.408   1.020
 1372  LAT   Au 1912   6.936   0.408   0.816
 1373  LAT   Au 1913   7.140   0.612   0.816
 1374  LAT   Au 1914   6.936   0.612   1.020
 1375  LAT   Au 1915   7.140   0.408   1.020
 1376  LAT   Au 1916   0.000   0.816   0.816
 1377  LAT   Au 1917   0.204   1.020   0.816
 1378  LAT   Au 1918   0.000   1.020   1.020
 1379  LAT   Au 1919   0.204   0.816   1.020
 1380  LAT   Au 1920   0.408   0.816   0.816
 1381  LAT   Au 1921   0.612   1.020   0.816
 1382  LAT   Au 1922   0.408   1.020   1.020
 1383  LAT   Au 1923   0.612   0.816   1.020
 1384  LAT   Au 1924   0.816   0.816   0.816
 1385  LAT   Au 1925   1.020   1.020   0.816
 1386  LAT   Au 1926   0.816   1.020   1.020
 1387  LAT   Au 1927   1.020   0.816   1.020
 1388  LAT   Au 1928   1.224   0.816   0.816
 1389  LAT   Au 1929   1.428   1.020   0.816
 1390  LAT   Au 1930   1.224   1.020   1.020
 1391  LAT   Au 1931   1.428   0.816   1.020
 1392  LAT   Au 1932   1.632   0.816   0.816
 1393  LAT   Au 1933   1.836   1.020   0.816
 1394  LAT   Au 1934   1.632   1.020   1.020
 1395  LAT   Au 1935   1.836   0.816   1.020
 1396  LAT   Au 1936   2.040   0.816   0.816
 1397  LAT   Au 1937   2.040   1.020   1.020
 1398  LAT   Au 1938   2.244   0.816   1.020
 1399  LAT   Au 1939   2.448   0.816   0.816
 1400  LAT   Au 1940   4.896   0.816   0.816
 1401  LAT   Au 1941   5.100   0.816   1.020
 1402  LAT   Au 1942   5.304   0.816   0.816
 1403  LAT   Au 1943   5.508   1.020   0.816
 1404  LAT   Au 1944   5.304   1.020   1.020
 1405  LAT   Au 1945   5.508   0.816   1.020
 1406  LAT   Au 1946   5.712   0.816   0.816
 1407  LAT   Au 1947   5.916   1.020   0.816
 1408  LAT   Au 1948   5.712   1.020   1.020
 1409  LAT   Au 1949   5.916   0.816   1.020
 1410  LAT   Au 1950   6.120   0.816   0.816
 1411  LAT   Au 1951   6.324   1.020   0.816
 1412  LAT   Au 1952   6.120   1.020   1.020
 1413  LAT   Au 1953   6.324   0.816   1.020
 1414  LAT   Au 1954   6.528   0.816   0.816
 1415  LAT   Au 1955   6.732   1.020   0.816
 1416  LAT   Au 1956   6.528   1.020   1.020
 1417  LAT   Au 1957   6.732   0.816   1.020
 1418  LAT   Au 1958   6.936   0.816   0.816
 1419  LAT   Au 1959   7.140   1.020   0.816
 1420  LAT   Au 1960   6.936   1.020   1.020
 1421  LAT   Au 1961   7.140   0.816   1.020
 1422  LAT   Au 1962   0.000   1.224   0.816
 1423  LAT   Au 1963   0.204   1.428   0.816
 1424  LAT   Au 1964   0.000   1.428   1.020
 1425  LAT   Au 1965   0.204   1.224   1.020
 1426  LAT   Au 1966   0.408   1.224   0.816
 1427  LAT   Au 1967   0.612   1.428   0.816
 1428  LAT   Au 1968   0.408   1.428   1.020
 1429  LAT   Au 1969   0.612   1.224   1.020
 1430  LAT   Au 1970   0.816   1.224   0.816
 1431  LAT   Au 1971   1.020   1.428   0.816
 1432  LAT   Au 1972   0.816   1.428   1.020
 1433  LAT   Au 1973   1.020   1.224   1.020
 1434  LAT   Au 1974   1.224   1.224   0.816
 1435  LAT   Au 1975   1.428   1.428   0.816
 1436  LAT   Au 1976   1.224   1.428   1.020
 1437  LAT   Au 1977   1.428   1.224   1.020
 1438  LAT   Au 1978   1.632   1.224   0.816
 1439  LAT   Au 1979   5.508   1.224   1.020
 1440  LAT   Au 1980   5.712   1.224   0.816
 1441  LAT   Au 1981   5.916   1.428   0.816
 1442  LAT   Au 1982   5.712   1.428   1.020
 1443  LAT   Au 1983   5.916   1.224   1.020
 1444  LAT   Au 1984   6.120   1.224   0.816
 1445  LAT   Au 1985   6.324   1.428   0.816
 1446  LAT   Au 1986   6.120   1.428   1.020
 1447  LAT   Au 1987   6.324   1.224   1.020
 1448  LAT   Au 1988   6.528   1.224   0.816
 1449  LAT   Au 1989   6.732   1.428   0.816
 1450  LAT   Au 1990   6.528   1.428   1.020
 1451  LAT   Au 1991   6.732   1.224   1.020
 1452  LAT   Au 1992   6.936   1.224   0.816
 1453  LAT   Au 1993   7.140   1.428   0.816
 1454  LAT   Au 1994   6.936   1.428   1.020
 1455  LAT   Au 1995   7.140   1.224   1.020
 1456  LAT   Au 1996   0.000   1.632   0.816
 1457  LAT   Au 1997   0.204   1.836   0.816
 1458  LAT   Au 1998   0.000   1.836   1.020
 1459  LAT   Au 1999   0.204   1.632   1.020
 1460  LAT   Au 2000   0.408   1.632   0.816
 1461  LAT   Au 2001   0.612   1.836   0.816
 1462  LAT   Au 2002   0.408   1.836   1.020
 1463  LAT   Au 2003   0.612   1.632   1.020
 1464  LAT   Au 2004   0.816   1.632   0.816
 1465  LAT   Au 2005   1.020   1.836   0.816
 1466  LAT   Au 2006   0.816   1.836   1.020
 1467  LAT   Au 2007   1.020   1.632   1.020
 1468  LAT   Au 2008   1.224   1.632   0.816
 1469  LAT   Au 2009   5.916   1.632   1.020
 1470  LAT   Au 2010   6.120   1.632   0.816
 1471  LAT   Au 2011   6.324   1.836   0.816
 1472  LAT   Au 2012   6.120   1.836   1.020
 1473  LAT   Au 2013   6.324   1.632   1.020
 1474  LAT   Au 2014   6.528   1.632   0.816
 1475  LAT   Au 2015   6.732   1.836   0.816
 1476  LAT   Au 2016   6.528   1.836   1.020
 1477  LAT   Au 2017   6.732   1.632   1.020
 1478  LAT   Au 2018   6.936   1.632   0.816
 1479  LAT   Au 2019   7.140   1.836   0.816
 1480  LAT   Au 2020   6.936   1.836   1.020
 1481  LAT   Au 2021   7.140   1.632   1.020
 1482  LAT   Au 2022   0.000   2.040   0.816
 1483  LAT   Au 2023   0.204   2.244   0.816
 1484  LAT   Au 2024   0.000   2.244   1.020
 1485  LAT   Au 2025   0.204   2.040   1.020
 1486  LAT   Au 2026   0.408   2.040   0.816
 1487  LAT   Au 2027   0.612   2.244   0.816
 1488  LAT   Au 2028   0.408   2.244   1.020
 1489  LAT   Au 2029   0.612   2.040   1.020
 1490  LAT   Au 2030   0.816   2.040   0.816
 1491  LAT   Au 2031   0.816   2.244   1.020
 1492  LAT   Au 2032   1.020   2.040   1.020
 1493  LAT   Au 2033   6.324   2.244   0.816
 1494  LAT   Au 2034   6.324   2.040   1.020
 1495  LAT   Au 2035   6.528   2.040   0.816
 1496  LAT   Au 2036   6.732   2.244   0.816
 1497  LAT   Au 2037   6.528   2.244   1.020
 1498  LAT   Au 2038   6.732   2.040   1.020
 1499  LAT   Au 2039   6.936   2.040   0.816
 1500  LAT   Au 2040   7.140   2.244   0.816
 1501  LAT   Au 2041   6.936   2.244   1.020
 1502  LAT   Au 2042   7.140   2.040   1.020
 1503  LAT   Au 2043   0.000   2.448   0.816
 1504  LAT   Au 2044   0.204   2.652   0.816
 1505  LAT   Au 2045   0.000   2.652   1.020
 1506  LAT   Au 2046   0.204   2.448   1.020
 1507  LAT   Au 2047   0.408   2.448   0.816
 1508  LAT   Au 2048   0.612   2.652   0.816
 1509  LAT   Au 2049   0.408   2.652   1.020
 1510  LAT   Au 2050   0.612   2.448   1.020
 1511  LAT   Au 2051   0.816   2.448   0.816
 1512  LAT   Au 2052   6.528   2.448   0.816
 1513  LAT   Au 2053   6.732   2.652   0.816
 1514  LAT   Au 2054   6.528   2.652   1.020
 1515  LAT   Au 2055   6.732   2.448   1.020
 1516  LAT   Au 2056   6.936   2.448   0.816
 1517  LAT   Au 2057   7.140   2.652   0.816
 1518  LAT   Au 2058   6.936   2.652   1.020
 1519  LAT   Au 2059   7.140   2.448   1.020
 1520  LAT   Au 2060   0.000   2.856   0.816
 1521  LAT   Au 2061   0.204   3.060   0.816
 1522  LAT   Au 2062   0.000   3.060   1.020
 1523  LAT   Au 2063   0.204   2.856   1.020
 1524  LAT   Au 2064   0.408   2.856   0.816
 1525  LAT   Au 2065   0.612   3.060   0.816
 1526  LAT   Au 2066   0.408   3.060   1.020
 1527  LAT   Au 2067   0.612   2.856   1.020
 1528  LAT   Au 2068   6.528   2.856   0.816
 1529  LAT   Au 2069   6.732   3.060   0.816
 1530  LAT   Au 2070   6.732   2.856   1.020
 1531  LAT   Au 2071   6.936   2.856   0.816
 1532  LAT   Au 2072   7.140   3.060   0.816
 1533  LAT   Au 2073   6.936   3.060   1.020
 1534  LAT   Au 2074   7.140   2.856   1.020
 1535  LAT   Au 2075   0.000   3.264   0.816
 1536  LAT   Au 2076   0.204   3.468   0.816
 1537  LAT   Au 2077   0.000   3.468   1.020
 1538  LAT   Au 2078   0.204   3.264   1.020
 1539  LAT   Au 2079   0.408   3.264   0.816
 1540  LAT   Au 2080   0.408   3.468   1.020
 1541  LAT   Au 2081   0.612   3.264   1.020
 1542  LAT   Au 2082   6.732   3.468   0.816
 1543  LAT   Au 2083   6.732   3.264   1.020
 1544  LAT   Au 2084   6.936   3.264   0.816
 1545  LAT   Au 2085   7.140   3.468   0.816
 1546  LAT   Au 2086   6.936   3.468   1.020
 1547  LAT   Au 2087   7.140   3.264   1.020
 1548  LAT   Au 2088   0.000   3.672   0.816
 1549  LAT   Au 2089   0.204   3.876   0.816
 1550  LAT   Au 2090   0.000   3.876   1.020
 1551  LAT   Au 2091   0.204   3.672   1.020
 1552  LAT   Au 2092   0.408   3.672   0.816
 1553  LAT   Au 2093   0.408   3.876   1.020
 1554  LAT   Au 2094   6.732   3.876   0.816
 1555  LAT   Au 2095   6.732   3.672   1.020
 1556  LAT   Au 2096   6.936   3.672   0.816
 1557  LAT   Au 2097   7.140   3.876   0.816
 1558  LAT   Au 2098   6.936   3.876   1.020
 1559  LAT   Au 2099   7.140   3.672   1.020
 1560  LAT   Au 2100   0.000   4.080   0.816
 1561  LAT   Au 2101   0.204   4.284   0.816
 1562  LAT   Au 2102   0.000   4.284   1.020
 1563  LAT   Au 2103   0.204   4.080   1.020
 1564  LAT   Au 2104   0.408   4.080   0.816
 1565  LAT   Au 2105   0.612   4.284   0.816
 1566  LAT   Au 2106   0.408   4.284   1.020
 1567  LAT   Au 2107   0.612   4.080   1.020
 1568  LAT   Au 2108   6.732   4.284   0.816
 1569  LAT   Au 2109   6.528   4.284   1.020
 1570  LAT   Au 2110   6.732   4.080   1.020
 1571  LAT   Au 2111   6.936   4.080   0.816
 1572  LAT   Au 2112   7.140   4.284   0.816
 1573  LAT   Au 2113   6.936   4.284   1.020
 1574  LAT   Au 2114   7.140   4.080   1.020
 1575  LAT   Au 2115   0.000   4.488   0.816
 1576  LAT   Au 2116   0.204   4.692   0.816
 1577  LAT   Au 2117   0.000   4.692   1.020
 1578  LAT   Au 2118   0.204   4.488   1.020
 1579  LAT   Au 2119   0.408   4.488   0.816
 1580  LAT   Au 2120   0.612   4.692   0.816
 1581  LAT   Au 2121   0.408   4.692   1.020
 1582  LAT   Au 2122   0.612   4.488   1.020
 1583  LAT   Au 2123   6.528   4.488   0.816
 1584  LAT   Au 2124   6.732   4.692   0.816
 1585  LAT   Au 2125   6.528   4.692   1.020
 1586  LAT   Au 2126   6.732   4.488   1.020
 1587  LAT   Au 2127   6.936   4.488   0.816
 1588  LAT   Au 2128   7.140   4.692   0.816
 1589  LAT   Au 2129   6.936   4.692   1.020
 1590  LAT   Au 2130   7.140   4.488   1.020
 1591  LAT   Au 2131   0.000   4.896   0.816
 1592  LAT   Au 2132   0.204   5.100   0.816
 1593  LAT   Au 2133   0.000   5.100   1.020
 1594  LAT   Au 2134   0.204   4.896   1.020
 1595  LAT   Au 2135   0.408   4.896   0.816
 1596  LAT   Au 2136   0.612   5.100   0.816
 1597  LAT   Au 2137   0.408   5.100   1.020
 1598  LAT   Au 2138   0.612   4.896   1.020
 1599  LAT   Au 2139   0.816   4.896   0.816
 1600  LAT   Au 2140   0.816   5.100   1.020
 1601  LAT   Au 2141   6.324   5.100   0.816
 1602  LAT   Au 2142   6.324   4.896   1.020
 1603  LAT   Au 2143   6.528   4.896   0.816
 1604  LAT   Au 2144   6.732   5.100   0.816
 1605  LAT   Au 2145   6.528   5.100   1.020
 1606  LAT   Au 2146   6.732   4.896   1.020
 1607  LAT   Au 2147   6.936   4.896   0.816
 1608  LAT   Au 2148   7.140   5.100   0.816
 1609  LAT   Au 2149   6.936   5.100   1.020
 1610  LAT   Au 2150   7.140   4.896   1.020
 1611  LAT   Au 2151   0.000   5.304   0.816
 1612  LAT   Au 2152   0.204   5.508   0.816
 1613  LAT   Au 2153   0.000   5.508   1.020
 1614  LAT   Au 2154   0.204   5.304   1.020
 1615  LAT   Au 2155   0.408   5.304   0.816
 1616  LAT   Au 2156   0.612   5.508   0.816
 1617  LAT   Au 2157   0.408   5.508   1.020
 1618  LAT   Au 2158   0.612   5.304   1.020
 1619  LAT   Au 2159   0.816   5.304   0.816
 1620  LAT   Au 2160   1.020   5.508   0.816
 1621  LAT   Au 2161   0.816   5.508   1.020
 1622  LAT   Au 2162   1.020   5.304   1.020
 1623  LAT   Au 2163   1.224   5.508   1.020
 1624  LAT   Au 2164   5.916   5.508   0.816
 1625  LAT   Au 2165   6.120   5.304   0.816
 1626  LAT   Au 2166   6.324   5.508   0.816
 1627  LAT   Au 2167   6.120   5.508   1.020
 1628  LAT   Au 2168   6.324   5.304   1.020
 1629  LAT   Au 2169   6.528   5.304   0.816
 1630  LAT   Au 2170   6.732   5.508   0.816
 1631  LAT   Au 2171   6.528   5.508   1.020
 1632  LAT   Au 2172   6.732   5.304   1.020
 1633  LAT   Au 2173   6.936   5.304   0.816
 1634  LAT   Au 2174   7.140   5.508   0.816
 1635  LAT   Au 2175   6.936   5.508   1.020
 1636  LAT   Au 2176   7.140   5.304   1.020
 1637  LAT   Au 2177   0.000   5.712   0.816
 1638  LAT   Au 2178   0.204   5.916   0.816
 1639  LAT   Au 2179   0.000   5.916   1.020
 1640  LAT   Au 2180   0.204   5.712   1.020
 1641  LAT   Au 2181   0.408   5.712   0.816
 1642  LAT   Au 2182   0.612   5.916   0.816
 1643  LAT   Au 2183   0.408   5.916   1.020
 1644  LAT   Au 2184   0.612   5.712   1.020
 1645  LAT   Au 2185   0.816   5.712   0.816
 1646  LAT   Au 2186   1.020   5.916   0.816
 1647  LAT   Au 2187   0.816   5.916   1.020
 1648  LAT   Au 2188   1.020   5.712   1.020
 1649  LAT   Au 2189   1.224   5.712   0.816
 1650  LAT   Au 2190   1.428   5.916   0.816
 1651  LAT   Au 2191   1.224   5.916   1.020
 1652  LAT   Au 2192   1.428   5.712   1.020
 1653  LAT   Au 2193   1.632   5.916   1.020
 1654  LAT   Au 2194   5.508   5.916   0.816
 1655  LAT   Au 2195   5.916   5.916   0.816
 1656  LAT   Au 2196   5.712   5.916   1.020
 1657  LAT   Au 2197   5.916   5.712   1.020
 1658  LAT   Au 2198   6.120   5.712   0.816
 1659  LAT   Au 2199   6.324   5.916   0.816
 1660  LAT   Au 2200   6.120   5.916   1.020
 1661  LAT   Au 2201   6.324   5.712   1.020
 1662  LAT   Au 2202   6.528   5.712   0.816
 1663  LAT   Au 2203   6.732   5.916   0.816
 1664  LAT   Au 2204   6.528   5.916   1.020
 1665  LAT   Au 2205   6.732   5.712   1.020
 1666  LAT   Au 2206   6.936   5.712   0.816
 1667  LAT   Au 2207   7.140   5.916   0.816
 1668  LAT   Au 2208   6.936   5.916   1.020
 1669  LAT   Au 2209   7.140   5.712   1.020
 1670  LAT   Au 2210   0.000   6.120   0.816
 1671  LAT   Au 2211   0.204   6.324   0.816
 1672  LAT   Au 2212   0.000   6.324   1.020
 1673  LAT   Au 2213   0.204   6.120   1.020
 1674  LAT   Au 2214   0.408   6.120   0.816
 1675  LAT   Au 2215   0.612   6.324   0.816
 1676  LAT   Au 2216   0.408   6.324   1.020
 1677  LAT   Au 2217   0.612   6.120   1.020
 1678  LAT   Au 2218   0.816   6.120   0.816
 1679  LAT   Au 2219   1.020   6.324   0.816
 1680  LAT   Au 2220   0.816   6.324   1.020
 1681  LAT   Au 2221   1.020   6.120   1.020
 1682  LAT   Au 2222   1.224   6.120   0.816
 1683  LAT   Au 2223   1.428   6.324   0.816
 1684  LAT   Au 2224   1.224   6.324   1.020
 1685  LAT   Au 2225   1.428   6.120   1.020
 1686  LAT   Au 2226   1.632   6.120   0.816
 1687  LAT   Au 2227   1.836   6.324   0.816
 1688  LAT   Au 2228   1.632   6.324   1.020
 1689  LAT   Au 2229   1.836   6.120   1.020
 1690  LAT   Au 2230   2.244   6.324   0.816
 1691  LAT   Au 2231   2.040   6.324   1.020
 1692  LAT   Au 2232   5.100   6.324   0.816
 1693  LAT   Au 2233   4.896   6.324   1.020
 1694  LAT   Au 2234   5.304   6.120   0.816
 1695  LAT   Au 2235   5.508   6.324   0.816
 1696  LAT   Au 2236   5.304   6.324   1.020
 1697  LAT   Au 2237   5.508   6.120   1.020
 1698  LAT   Au 2238   5.712   6.120   0.816
 1699  LAT   Au 2239   5.916   6.324   0.816
 1700  LAT   Au 2240   5.712   6.324   1.020
 1701  LAT   Au 2241   5.916   6.120   1.020
 1702  LAT   Au 2242   6.120   6.120   0.816
 1703  LAT   Au 2243   6.324   6.324   0.816
 1704  LAT   Au 2244   6.120   6.324   1.020
 1705  LAT   Au 2245   6.324   6.120   1.020
 1706  LAT   Au 2246   6.528   6.120   0.816
 1707  LAT   Au 2247   6.732   6.324   0.816
 1708  LAT   Au 2248   6.528   6.324   1.020
 1709  LAT   Au 2249   6.732   6.120   1.020
 1710  LAT   Au 2250   6.936   6.120   0.816
 1711  LAT   Au 2251   7.140   6.324   0.816
 1712  LAT   Au 2252   6.936   6.324   1.020
 1713  LAT   Au 2253   7.140   6.120   1.020
 1714  LAT   Au 2254   0.000   6.528   0.816
 1715  LAT   Au 2255   0.204   6.732   0.816
 1716  LAT   Au 2256   0.000   6.732   1.020
 1717  LAT   Au 2257   0.204   6.528   1.020
 1718  LAT   Au 2258   0.408   6.528   0.816
 1719  LAT   Au 2259   0.612   6.732   0.816
 1720  LAT   Au 2260   0.408   6.732   1.020
 1721  LAT   Au 2261   0.612   6.528   1.020
 1722  LAT   Au 2262   0.816   6.528   0.816
 1723  LAT   Au 2263   1.020   6.732   0.816
 1724  LAT   Au 2264   0.816   6.732   1.020
 1725  LAT   Au 2265   1.020   6.528   1.020
 1726  LAT   Au 2266   1.224   6.528   0.816
 1727  LAT   Au 2267   1.428   6.732   0.816
 1728  LAT   Au 2268   1.224   6.732   1.020
 1729  LAT   Au 2269   1.428   6.528   1.020
 1730  LAT   Au 2270   1.632   6.528   0.816
 1731  LAT   Au 2271   1.836   6.732   0.816
 1732  LAT   Au 2272   1.632   6.732   1.020
 1733  LAT   Au 2273   1.836   6.528   1.020
 1734  LAT   Au 2274   2.040   6.528   0.816
 1735  LAT   Au 2275   2.244   6.732   0.816
 1736  LAT   Au 2276   2.040   6.732   1.020
 1737  LAT   Au 2277   2.244   6.528   1.020
 1738  LAT   Au 2278   2.448   6.528   0.816
 1739  LAT   Au 2279   2.652   6.732   0.816
 1740  LAT   Au 2280   2.448   6.732   1.020
 1741  LAT   Au 2281   2.652   6.528   1.020
 1742  LAT   Au 2282   2.856   6.528   0.816
 1743  LAT   Au 2283   3.060   6.732   0.816
 1744  LAT   Au 2284   2.856   6.732   1.020
 1745  LAT   Au 2285   3.468   6.732   0.816
 1746  LAT   Au 2286   3.264   6.732   1.020
 1747  LAT   Au 2287   3.876   6.732   0.816
 1748  LAT   Au 2288   3.672   6.732   1.020
 1749  LAT   Au 2289   4.284   6.732   0.816
 1750  LAT   Au 2290   4.080   6.732   1.020
 1751  LAT   Au 2291   4.284   6.528   1.020
 1752  LAT   Au 2292   4.488   6.528   0.816
 1753  LAT   Au 2293   4.692   6.732   0.816
 1754  LAT   Au 2294   4.488   6.732   1.020
 1755  LAT   Au 2295   4.692   6.528   1.020
 1756  LAT   Au 2296   4.896   6.528   0.816
 1757  LAT   Au 2297   5.100   6.732   0.816
 1758  LAT   Au 2298   4.896   6.732   1.020
 1759  LAT   Au 2299   5.100   6.528   1.020
 1760  LAT   Au 2300   5.304   6.528   0.816
 1761  LAT   Au 2301   5.508   6.732   0.816
 1762  LAT   Au 2302   5.304   6.732   1.020
 1763  LAT   Au 2303   5.508   6.528   1.020
 1764  LAT   Au 2304   5.712   6.528   0.816
 1765  LAT   Au 2305   5.916   6.732   0.816
 1766  LAT   Au 2306   5.712   6.732   1.020
 1767  LAT   Au 2307   5.916   6.528   1.020
 1768  LAT   Au 2308   6.120   6.528   0.816
 1769  LAT   Au 2309   6.324   6.732   0.816
 1770  LAT   Au 2310   6.120   6.732   1.020
 1771  LAT   Au 2311   6.324   6.528   1.020
 1772  LAT   Au 2312   6.528   6.528   0.816
 1773  LAT   Au 2313   6.732   6.732   0.816
 1774  LAT   Au 2314   6.528   6.732   1.020
 1775  LAT   Au 2315   6.732   6.528   1.020
 1776  LAT   Au 2316   6.936   6.528   0.816
 1777  LAT   Au 2317   7.140   6.732   0.816
 1778  LAT   Au 2318   6.936   6.732   1.020
 1779  LAT   Au 2319   7.140   6.528   1.020
 1780  LAT   Au 2320   0.000   6.936   0.816
 1781  LAT   Au 2321   0.204   7.140   0.816
 1782  LAT   Au 2322   0.000   7.140   1.020
 1783  LAT   Au 2323   0.204   6.936   1.020
 1784  LAT   Au 2324   0.408   6.936   0.816
 1785  LAT   Au 2325   0.612   7.140   0.816
 1786  LAT   Au 2326   0.408   7.140   1.020
 1787  LAT   Au 2327   0.612   6.936   1.020
 1788  LAT   Au 2328   0.816   6.936   0.816
 1789  LAT   Au 2329   1.020   7.140   0.816
 1790  LAT   Au 2330   0.816   7.140   1.020
 1791  LAT   Au 2331   1.020   6.936   1.020
 1792  LAT   Au 2332   1.224   6.936   0.816
 1793  LAT   Au 2333   1.428   7.140   0.816
 1794  LAT   Au 2334   1.224   7.140   1.020
 1795  LAT   Au 2335   1.428   6.936   1.020
 1796  LAT   Au 2336   1.632   6.936   0.816
 1797  LAT   Au 2337   1.836   7.140   0.816
 1798  LAT   Au 2338   1.632   7.140   1.020
 1799  LAT   Au 2339   1.836   6.936   1.020
 1800  LAT   Au 2340   2.040   6.936   0.816
 1801  LAT   Au 2341   2.244   7.140   0.816
 1802  LAT   Au 2342   2.040   7.140   1.020
 1803  LAT   Au 2343   2.244   6.936   1.020
 1804  LAT   Au 2344   2.448   6.936   0.816
 1805  LAT   Au 2345   2.652   7.140   0.816
 1806  LAT   Au 2346   2.448   7.140   1.020
 1807  LAT   Au 2347   2.652   6.936   1.020
 1808  LAT   Au 2348   2.856   6.936   0.816
 1809  LAT   Au 2349   3.060   7.140   0.816
 1810  LAT   Au 2350   2.856   7.140   1.020
 1811  LAT   Au 2351   3.060   6.936   1.020
 1812  LAT   Au 2352   3.264   6.936   0.816
 1813  LAT   Au 2353   3.468   7.140   0.816
 1814  LAT   Au 2354   3.264   7.140   1.020
 1815  LAT   Au 2355   3.468   6.936   1.020
 1816  LAT   Au 2356   3.672   6.936   0.816
 1817  LAT   Au 2357   3.876   7.140   0.816
 1818  LAT   Au 2358   3.672   7.140   1.020
 1819  LAT   Au 2359   3.876   6.936   1.020
 1820  LAT   Au 2360   4.080   6.936   0.816
 1821  LAT   Au 2361   4.284   7.140   0.816
 1822  LAT   Au 2362   4.080   7.140   1.020
 1823  LAT   Au 2363   4.284   6.936   1.020
 1824  LAT   Au 2364   4.488   6.936   0.816
 1825  LAT   Au 2365   4.692   7.140   0.816
 1826  LAT   Au 2366   4.488   7.140   1.020
 1827  LAT   Au 2367   4.692   6.936   1.020
 1828  LAT   Au 2368   4.896   6.936   0.816
 1829  LAT   Au 2369   5.100   7.140   0.816
 1830  LAT   Au 2370   4.896   7.140   1.020
 1831  LAT   Au 2371   5.100   6.936   1.020
 1832  LAT   Au 2372   5.304   6.936   0.816
 1833  LAT   Au 2373   5.508   7.140   0.816
 1834  LAT   Au 2374   5.304   7.140   1.020
 1835  LAT   Au 2375   5.508   6.936   1.020
 1836  LAT   Au 2376   5.712   6.936   0.816
 1837  LAT   Au 2377   5.916   7.140   0.816
 1838  LAT   Au 2378   5.712   7.140   1.020
 1839  LAT   Au 2379   5.916   6.936   1.020
 1840  LAT   Au 2380   6.120   6.936   0.816
 1841  LAT   Au 2381   6.324   7.140   0.816
 1842  LAT   Au 2382   6.120   7.140   1.020
 1843  LAT   Au 2383   6.324   6.936   1.020
 1844  LAT   Au 2384   6.528   6.936   0.816
 1845  LAT   Au 2385   6.732   7.140   0.816
 1846  LAT   Au 2386   6.528   7.140   1.020
 1847  LAT   Au 2387   6.732   6.936   1.020
 1848  LAT   Au 2388   6.936   6.936   0.816
 1849  LAT   Au 2389   7.140   7.140   0.816
 1850  LAT   Au 2390   6.936   7.140   1.020
 1851  LAT   Au 2391   7.140   6.936   1.020
 1852  LAT   Au 2392   0.000   0.000   1.224
 1853  LAT   Au 2393   0.204   0.204   1.224
 1854  LAT   Au 2394   0.000   0.204   1.428
 1855  LAT   Au 2395   0.204   0.000   1.428
 1856  LAT   Au 2396   0.408   0.000   1.224
 1857  LAT   Au 2397   0.612   0.204   1.224
 1858  LAT   Au 2398   0.408   0.204   1.428
 1859  LAT   Au 2399   0.612   0.000   1.428
 1860  LAT   Au 2400   0.816   0.000   1.224
 1861  LAT   Au 2401   1.020   0.204   1.224
 1862  LAT   Au 2402   0.816   0.204   1.428
 1863  LAT   Au 2403   1.020   0.000   1.428
 1864  LAT   Au 2404   1.224   0.000   1.224
 1865  LAT   Au 2405   1.428   0.204   1.224
 1866  LAT   Au 2406   1.224   0.204   1.428
 1867  LAT   Au 2407   1.428   0.000   1.428
 1868  LAT   Au 2408   1.632   0.000   1.224
 1869  LAT   Au 2409   1.836   0.204   1.224
 1870  LAT   Au 2410   1.632   0.204   1.428
 1871  LAT   Au 2411   1.836   0.000   1.428
 1872  LAT   Au 2412   2.040   0.000   1.224
 1873  LAT   Au 2413   2.244   0.204   1.224
 1874  LAT   Au 2414   2.040   0.204   1.428
 1875  LAT   Au 2415   2.244   0.000   1.428
 1876  LAT   Au 2416   2.448   0.000   1.224
 1877  LAT   Au 2417   2.652   0.204   1.224
 1878  LAT   Au 2418   2.448   0.204   1.428
 1879  LAT   Au 2419   2.652   0.000   1.428
 1880  LAT   Au 2420   2.856   0.000   1.224
 1881  LAT   Au 2421   3.060   0.204   1.224
 1882  LAT   Au 2422   2.856   0.204   1.428
 1883  LAT   Au 2423   3.060   0.000   1.428
 1884  LAT   Au 2424   3.264   0.000   1.224
 1885  LAT   Au 2425   3.468   0.204   1.224
 1886  LAT   Au 2426   3.264   0.204   1.428
 1887  LAT   Au 2427   3.468   0.000   1.428
 1888  LAT   Au 2428   3.672   0.000   1.224
 1889  LAT   Au 2429   3.876   0.204   1.224
 1890  LAT   Au 2430   3.672   0.204   1.428
 1891  LAT   Au 2431   3.876   0.000   1.428
 1892  LAT   Au 2432   4.080   0.000   1.224
 1893  LAT   Au 2433   4.284   0.204   1.224
 1894  LAT   Au 2434   4.080   0.204   1.428
 1895  LAT   Au 2435   4.284   0.000   1.428
 1896  LAT   Au 2436   4.488   0.000   1.224
 1897  LAT   Au 2437   4.692   0.204   1.224
 1898  LAT   Au 2438   4.488   0.204   1.428
 1899  LAT   Au 2439   4.692   0.000   1.428
 1900  LAT   Au 2440   4.896   0.000   1.224
 1901  LAT   Au 2441   5.100   0.204   1.224
 1902  LAT   Au 2442   4.896   0.204   1.428
 1903  LAT   Au 2443   5.100   0.000   1.428
 1904  LAT   Au 2444   5.304   0.000   1.224
 1905  LAT   Au 2445   5.508   0.204   1.224
 1906  LAT   Au 2446   5.304   0.204   1.428
 1907  LAT   Au 2447   5.508   0.000   1.428
 1908  LAT   Au 2448   5.712   0.000   1.224
 1909  LAT   Au 2449   5.916   0.204   1.224
 1910  LAT   Au 2450   5.712   0.204   1.428
 1911  LAT   Au 2451   5.916   0.000   1.428
 1912  LAT   Au 2452   6.120   0.000   1.224
 1913  LAT   Au 2453   6.324   0.204   1.224
 1914  LAT   Au 2454   6.120   0.204   1.428
 1915  LAT   Au 2455   6.324   0.000   1.428
 1916  LAT   Au 2456   6.528   0.000   1.224
 1917  LAT   Au 2457   6.732   0.204   1.224
 1918  LAT   Au 2458   6.528   0.204   1.428
 1919  LAT   Au 2459   6.732   0.000   1.428
 1920  LAT   Au 2460   6.936   0.000   1.224
 1921  LAT   Au 2461   7.140   0.204   1.224
 1922  LAT   Au 2462   6.936   0.204   1.428
 1923  LAT   Au 2463   7.140   0.000   1.428
 1924  LAT   Au 2464   0.000   0.408   1.224
 1925  LAT   Au 2465   0.204   0.612   1.224
 1926  LAT   Au 2466   0.000   0.612   1.428
 1927  LAT   Au 2467   0.204   0.408   1.428
 1928  LAT   Au 2468   0.408   0.408   1.224
 1929  LAT   Au 2469   0.612   0.612   1.224
 1930  LAT   Au 2470   0.408   0.612   1.428
 1931  LAT   Au 2471   0.612   0.408   1.428
 1932  LAT   Au 2472   0.816   0.408   1.224
 1933  LAT   Au 2473   1.020   0.612   1.224
 1934  LAT   Au 2474   0.816   0.612   1.428
 1935  LAT   Au 2475   1.020   0.408   1.428
 1936  LAT   Au 2476   1.224   0.408   1.224
 1937  LAT   Au 2477   1.428   0.612   1.224
 1938  LAT   Au 2478   1.224   0.612   1.428
 1939  LAT   Au 2479   1.428   0.408   1.428
 1940  LAT   Au 2480   1.632   0.408   1.224
 1941  LAT   Au 2481   1.836   0.612   1.224
 1942  LAT   Au 2482   1.632   0.612   1.428
 1943  LAT   Au 2483   1.836   0.408   1.428
 1944  LAT   Au 2484   2.040   0.408   1.224
 1945  LAT   Au 2485   2.244   0.612   1.224
 1946  LAT   Au 2486   2.040   0.612   1.428
 1947  LAT   Au 2487   2.244   0.408   1.428
 1948  LAT   Au 2488   2.448   0.408   1.224
 1949  LAT   Au 2489   2.652   0.612   1.224
 1950  LAT   Au 2490   2.448   0.612   1.428
 1951  LAT   Au 2491   2.652   0.408   1.428
 1952  LAT   Au 2492   2.856   0.408   1.224
 1953  LAT   Au 2493   3.060   0.612   1.224
 1954  LAT   Au 2494   2.856   0.612   1.428
 1955  LAT   Au 2495   3.060   0.408   1.428
 1956  LAT   Au 2496   3.264   0.408   1.224
 1957  LAT   Au 2497   3.264   0.612   1.428
 1958  LAT   Au 2498   3.468   0.408   1.428
 1959  LAT   Au 2499   3.672   0.408   1.224
 1960  LAT   Au 2500   3.876   0.408   1.428
 1961  LAT   Au 2501   4.080   0.408   1.224
 1962  LAT   Au 2502   4.284   0.612   1.224
 1963  LAT   Au 2503   4.080   0.612   1.428
 1964  LAT   Au 2504   4.284   0.408   1.428
 1965  LAT   Au 2505   4.488   0.408   1.224
 1966  LAT   Au 2506   4.692   0.612   1.224
 1967  LAT   Au 2507   4.488   0.612   1.428
 1968  LAT   Au 2508   4.692   0.408   1.428
 1969  LAT   Au 2509   4.896   0.408   1.224
 1970  LAT   Au 2510   5.100   0.612   1.224
 1971  LAT   Au 2511   4.896   0.612   1.428
 1972  LAT   Au 2512   5.100   0.408   1.428
 1973  LAT   Au 2513   5.304   0.408   1.224
 1974  LAT   Au 2514   5.508   0.612   1.224
 1975  LAT   Au 2515   5.304   0.612   1.428
 1976  LAT   Au 2516   5.508   0.408   1.428
 1977  LAT   Au 2517   5.712   0.408   1.224
 1978  LAT   Au 2518   5.916   0.612   1.224
 1979  LAT   Au 2519   5.712   0.612   1.428
 1980  LAT   Au 2520   5.916   0.408   1.428
 1981  LAT   Au 2521   6.120   0.408   1.224
 1982  LAT   Au 2522   6.324   0.612   1.224
 1983  LAT   Au 2523   6.120   0.612   1.428
 1984  LAT   Au 2524   6.324   0.408   1.428
 1985  LAT   Au 2525   6.528   0.408   1.224
 1986  LAT   Au 2526   6.732   0.612   1.224
 1987  LAT   Au 2527   6.528   0.612   1.428
 1988  LAT   Au 2528   6.732   0.408   1.428
 1989  LAT   Au 2529   6.936   0.408   1.224
 1990  LAT   Au 2530   7.140   0.612   1.224
 1991  LAT   Au 2531   6.936   0.612   1.428
 1992  LAT   Au 2532   7.140   0.408   1.428
 1993  LAT   Au 2533   0.000   0.816   1.224
 1994  LAT   Au 2534   0.204   1.020   1.224
 1995  LAT   Au 2535   0.000   1.020   1.428
 1996  LAT   Au 2536   0.204   0.816   1.428
 1997  LAT   Au 2537   0.408   0.816   1.224
 1998  LAT   Au 2538   0.612   1.020   1.224
 1999  LAT   Au 2539   0.408   1.020   1.428
 2000  LAT   Au 2540   0.612   0.816   1.428
 2001  LAT   Au 2541   0.816   0.816   1.224
 2002  LAT   Au 2542   1.020   1.020   1.224
 2003  LAT   Au 2543   0.816   1.020   1.428
 2004  LAT   Au 2544   1.020   0.816   1.428
 2005  LAT   Au 2545   1.224   0.816   1.224
 2006  LAT   Au 2546   1.428   1.020   1.224
 2007  LAT   Au 2547   1.224   1.020   1.428
 2008  LAT   Au 2548   1.428   0.816   1.428
 2009  LAT   Au 2549   1.632   0.816   1.224
 2010  LAT   Au 2550   1.836   1.020   1.224
 2011  LAT   Au 2551   1.632   1.020   1.428
 2012  LAT   Au 2552   1.836   0.816   1.428
 2013  LAT   Au 2553   2.040   0.816   1.224
 2014  LAT   Au 2554   2.040   1.020   1.428
 2015  LAT   Au 2555   2.244   0.816   1.428
 2016  LAT   Au 2556   2.448   0.816   1.224
 2017  LAT   Au 2557   4.896   0.816   1.224
 2018  LAT   Au 2558   5.100   0.816   1.428
 2019  LAT   Au 2559   5.304   0.816   1.224
 2020  LAT   Au 2560   5.508   1.020   1.224
 2021  LAT   Au 2561   5.304   1.020   1.428
 2022  LAT   Au 2562   5.508   0.816   1.428
 2023  LAT   Au 2563   5.712   0.816   1.224
 2024  LAT   Au 2564   5.916   1.020   1.224
 2025  LAT   Au 2565   5.712   1.020   1.428
 2026  LAT   Au 2566   5.916   0.816   1.428
 2027  LAT   Au 2567   6.120   0.816   1.224
 2028  LAT   Au 2568   6.324   1.020   1.224
 2029  LAT   Au 2569   6.120   1.020   1.428
 2030  LAT   Au 2570   6.324   0.816   1.428
 2031  LAT   Au 2571   6.528   0.816   1.224
 2032  LAT   Au 2572   6.732   1.020   1.224
 2033  LAT   Au 2573   6.528   1.020   1.428
 2034  LAT   Au 2574   6.732   0.816   1.428
 2035  LAT   Au 2575   6.936   0.816   1.224
 2036  LAT   Au 2576   7.140   1.020   1.224
 2037  LAT   Au 2577   6.936   1.020   1.428
 2038  LAT   Au 2578   7.140   0.816   1.428
 2039  LAT   Au 2579   0.000   1.224   1.224
 2040  LAT   Au 2580   0.204   1.428   1.224
 2041  LAT   Au 2581   0.000   1.428   1.428
 2042  LAT   Au 2582   0.204   1.224   1.428
 2043  LAT   Au 2583   0.408   1.224   1.224
 2044  LAT   Au 2584   0.612   1.428   1.224
 2045  LAT   Au 2585   0.408   1.428   1.428
 2046  LAT   Au 2586   0.612   1.224   1.428
 2047  LAT   Au 2587   0.816   1.224   1.224
 2048  LAT   Au 2588   1.020   1.428   1.224
 2049  LAT   Au 2589   0.816   1.428   1.428
 2050  LAT   Au 2590   1.020   1.224   1.428
 2051  LAT   Au 2591   1.224   1.224   1.224
 2052  LAT   Au 2592   1.428   1.428   1.224
 2053  LAT   Au 2593   1.224   1.428   1.428
 2054  LAT   Au 2594   1.428   1.224   1.428
 2055  LAT   Au 2595   1.632   1.224   1.224
 2056  LAT   Au 2596   5.508   1.224   1.428
 2057  LAT   Au 2597   5.712   1.224   1.224
 2058  LAT   Au 2598   5.916   1.428   1.224
 2059  LAT   Au 2599   5.712   1.428   1.428
 2060  LAT   Au 2600   5.916   1.224   1.428
 2061  LAT   Au 2601   6.120   1.224   1.224
 2062  LAT   Au 2602   6.324   1.428   1.224
 2063  LAT   Au 2603   6.120   1.428   1.428
 2064  LAT   Au 2604   6.324   1.224   1.428
 2065  LAT   Au 2605   6.528   1.224   1.224
 2066  LAT   Au 2606   6.732   1.428   1.224
 2067  LAT   Au 2607   6.528   1.428   1.428
 2068  LAT   Au 2608   6.732   1.224   1.428
 2069  LAT   Au 2609   6.936   1.224   1.224
 2070  LAT   Au 2610   7.140   1.428   1.224
 2071  LAT   Au 2611   6.936   1.428   1.428
 2072  LAT   Au 2612   7.140   1.224   1.428
 2073  LAT   Au 2613   0.000   1.632   1.224
 2074  LAT   Au 2614   0.204   1.836   1.224
 2075  LAT   Au 2615   0.000   1.836   1.428
 2076  LAT   Au 2616   0.204   1.632   1.428
 2077  LAT   Au 2617   0.408   1.632   1.224
 2078  LAT   Au 2618   0.612   1.836   1.224
 2079  LAT   Au 2619   0.408   1.836   1.428
 2080  LAT   Au 2620   0.612   1.632   1.428
 2081  LAT   Au 2621   0.816   1.632   1.224
 2082  LAT   Au 2622   1.020   1.836   1.224
 2083  LAT   Au 2623   0.816   1.836   1.428
 2084  LAT   Au 2624   1.020   1.632   1.428
 2085  LAT   Au 2625   1.224   1.632   1.224
 2086  LAT   Au 2626   5.916   1.632   1.428
 2087  LAT   Au 2627   6.120   1.632   1.224
 2088  LAT   Au 2628   6.324   1.836   1.224
 2089  LAT   Au 2629   6.120   1.836   1.428
 2090  LAT   Au 2630   6.324   1.632   1.428
 2091  LAT   Au 2631   6.528   1.632   1.224
 2092  LAT   Au 2632   6.732   1.836   1.224
 2093  LAT   Au 2633   6.528   1.836   1.428
 2094  LAT   Au 2634   6.732   1.632   1.428
 2095  LAT   Au 2635   6.936   1.632   1.224
 2096  LAT   Au 2636   7.140   1.836   1.224
 2097  LAT   Au 2637   6.936   1.836   1.428
 2098  LAT   Au 2638   7.140   1.632   1.428
 2099  LAT   Au 2639   0.000   2.040   1.224
 2100  LAT   Au 2640   0.204   2.244   1.224
 2101  LAT   Au 2641   0.000   2.244   1.428
 2102  LAT   Au 2642   0.204   2.040   1.428
 2103  LAT   Au 2643   0.408   2.040   1.224
 2104  LAT   Au 2644   0.612   2.244   1.224
 2105  LAT   Au 2645   0.408   2.244   1.428
 2106  LAT   Au 2646   0.612   2.040   1.428
 2107  LAT   Au 2647   0.816   2.040   1.224
 2108  LAT   Au 2648   0.816   2.244   1.428
 2109  LAT   Au 2649   1.020   2.040   1.428
 2110  LAT   Au 2650   6.324   2.244   1.224
 2111  LAT   Au 2651   6.324   2.040   1.428
 2112  LAT   Au 2652   6.528   2.040   1.224
 2113  LAT   Au 2653   6.732   2.244   1.224
 2114  LAT   Au 2654   6.528   2.244   1.428
 2115  LAT   Au 2655   6.732   2.040   1.428
 2116  LAT   Au 2656   6.936   2.040   1.224
 2117  LAT   Au 2657   7.140   2.244   1.224
 2118  LAT   Au 2658   6.936   2.244   1.428
 2119  LAT   Au 2659   7.140   2.040   1.428
 2120  LAT   Au 2660   0.000   2.448   1.224
 2121  LAT   Au 2661   0.204   2.652   1.224
 2122  LAT   Au 2662   0.000   2.652   1.428
 2123  LAT   Au 2663   0.204   2.448   1.428
 2124  LAT   Au 2664   0.408   2.448   1.224
 2125  LAT   Au 2665   0.612   2.652   1.224
 2126  LAT   Au 2666   0.408   2.652   1.428
 2127  LAT   Au 2667   0.612   2.448   1.428
 2128  LAT   Au 2668   0.816   2.448   1.224
 2129  LAT   Au 2669   6.528   2.448   1.224
 2130  LAT   Au 2670   6.732   2.652   1.224
 2131  LAT   Au 2671   6.528   2.652   1.428
 2132  LAT   Au 2672   6.732   2.448   1.428
 2133  LAT   Au 2673   6.936   2.448   1.224
 2134  LAT   Au 2674   7.140   2.652   1.224
 2135  LAT   Au 2675   6.936   2.652   1.428
 2136  LAT   Au 2676   7.140   2.448   1.428
 2137  LAT   Au 2677   0.000   2.856   1.224
 2138  LAT   Au 2678   0.204   3.060   1.224
 2139  LAT   Au 2679   0.000   3.060   1.428
 2140  LAT   Au 2680   0.204   2.856   1.428
 2141  LAT   Au 2681   0.408   2.856   1.224
 2142  LAT   Au 2682   0.612   3.060   1.224
 2143  LAT   Au 2683   0.408   3.060   1.428
 2144  LAT   Au 2684   0.612   2.856   1.428
 2145  LAT   Au 2685   6.528   2.856   1.224
 2146  LAT   Au 2686   6.732   3.060   1.224
 2147  LAT   Au 2687   6.732   2.856   1.428
 2148  LAT   Au 2688   6.936   2.856   1.224
 2149  LAT   Au 2689   7.140   3.060   1.224
 2150  LAT   Au 2690   6.936   3.060   1.428
 2151  LAT   Au 2691   7.140   2.856   1.428
 2152  LAT   Au 2692   0.000   3.264   1.224
 2153  LAT   Au 2693   0.204   3.468   1.224
 2154  LAT   Au 2694   0.000   3.468   1.428
 2155  LAT   Au 2695   0.204   3.264   1.428
 2156  LAT   Au 2696   0.408   3.264   1.224
 2157  LAT   Au 2697   0.408   3.468   1.428
 2158  LAT   Au 2698   0.612   3.264   1.428
 2159  LAT   Au 2699   6.732   3.468   1.224
 2160  LAT   Au 2700   6.732   3.264   1.428
 2161  LAT   Au 2701   6.936   3.264   1.224
 2162  LAT   Au 2702   7.140   3.468   1.224
 2163  LAT   Au 2703   6.936   3.468   1.428
 2164  LAT   Au 2704   7.140   3.264   1.428
 2165  LAT   Au 2705   0.000   3.672   1.224
 2166  LAT   Au 2706   0.204   3.876   1.224
 2167  LAT   Au 2707   0.000   3.876   1.428
 2168  LAT   Au 2708   0.204   3.672   1.428
 2169  LAT   Au 2709   0.408   3.672   1.224
 2170  LAT   Au 2710   0.408   3.876   1.428
 2171  LAT   Au 2711   6.732   3.876   1.224
 2172  LAT   Au 2712   6.732   3.672   1.428
 2173  LAT   Au 2713   6.936   3.672   1.224
 2174  LAT   Au 2714   7.140   3.876   1.224
 2175  LAT   Au 2715   6.936   3.876   1.428
 2176  LAT   Au 2716   7.140   3.672   1.428
 2177  LAT   Au 2717   0.000   4.080   1.224
 2178  LAT   Au 2718   0.204   4.284   1.224
 2179  LAT   Au 2719   0.000   4.284   1.428
 2180  LAT   Au 2720   0.204   4.080   1.428
 2181  LAT   Au 2721   0.408   4.080   1.224
 2182  LAT   Au 2722   0.612   4.284   1.224
 2183  LAT   Au 2723   0.408   4.284   1.428
 2184  LAT   Au 2724   0.612   4.080   1.428
 2185  LAT   Au 2725   6.732   4.284   1.224
 2186  LAT   Au 2726   6.528   4.284   1.428
 2187  LAT   Au 2727   6.732   4.080   1.428
 2188  LAT   Au 2728   6.936   4.080   1.224
 2189  LAT   Au 2729   7.140   4.284   1.224
 2190  LAT   Au 2730   6.936   4.284   1.428
 2191  LAT   Au 2731   7.140   4.080   1.428
 2192  LAT   Au 2732   0.000   4.488   1.224
 2193  LAT   Au 2733   0.204   4.692   1.224
 2194  LAT   Au 2734   0.000   4.692   1.428
 2195  LAT   Au 2735   0.204   4.488   1.428
 2196  LAT   Au 2736   0.408   4.488   1.224
 2197  LAT   Au 2737   0.612   4.692   1.224
 2198  LAT   Au 2738   0.408   4.692   1.428
 2199  LAT   Au 2739   0.612   4.488   1.428
 2200  LAT   Au 2740   6.528   4.488   1.224
 2201  LAT   Au 2741   6.732   4.692   1.224
 2202  LAT   Au 2742   6.528   4.692   1.428
 2203  LAT   Au 2743   6.732   4.488   1.428
 2204  LAT   Au 2744   6.936   4.488   1.224
 2205  LAT   Au 2745   7.140   4.692   1.224
 2206  LAT   Au 2746   6.936   4.692   1.428
 2207  LAT   Au 2747   7.140   4.488   1.428
 2208  LAT   Au 2748   0.000   4.896   1.224
 2209  LAT   Au 2749   0.204   5.100   1.224
 2210  LAT   Au 2750   0.000   5.100   1.428
 2211  LAT   Au 2751   0.204   4.896   1.428
 2212  LAT   Au 2752   0.408   4.896   1.224
 2213  LAT   Au 2753   0.612   5.100   1.224
 2214  LAT   Au 2754   0.408   5.100   1.428
 2215  LAT   Au 2755   0.612   4.896   1.428
 2216  LAT   Au 2756   0.816   4.896   1.224
 2217  LAT   Au 2757   0.816   5.100   1.428
 2218  LAT   Au 2758   6.324   5.100   1.224
 2219  LAT   Au 2759   6.324   4.896   1.428
 2220  LAT   Au 2760   6.528   4.896   1.224
 2221  LAT   Au 2761   6.732   5.100   1.224
 2222  LAT   Au 2762   6.528   5.100   1.428
 2223  LAT   Au 2763   6.732   4.896   1.428
 2224  LAT   Au 2764   6.936   4.896   1.224
 2225  LAT   Au 2765   7.140   5.100   1.224
 2226  LAT   Au 2766   6.936   5.100   1.428
 2227  LAT   Au 2767   7.140   4.896   1.428
 2228  LAT   Au 2768   0.000   5.304   1.224
 2229  LAT   Au 2769   0.204   5.508   1.224
 2230  LAT   Au 2770   0.000   5.508   1.428
 2231  LAT   Au 2771   0.204   5.304   1.428
 2232  LAT   Au 2772   0.408   5.304   1.224
 2233  LAT   Au 2773   0.612   5.508   1.224
 2234  LAT   Au 2774   0.408   5.508   1.428
 2235  LAT   Au 2775   0.612   5.304   1.428
 2236  LAT   Au 2776   0.816   5.304   1.224
 2237  LAT   Au 2777   1.020   5.508   1.224
 2238  LAT   Au 2778   0.816   5.508   1.428
 2239  LAT   Au 2779   1.020   5.304   1.428
 2240  LAT   Au 2780   1.224   5.508   1.428
 2241  LAT   Au 2781   5.916   5.508   1.224
 2242  LAT   Au 2782   6.120   5.304   1.224
 2243  LAT   Au 2783   6.324   5.508   1.224
 2244  LAT   Au 2784   6.120   5.508   1.428
 2245  LAT   Au 2785   6.324   5.304   1.428
 2246  LAT   Au 2786   6.528   5.304   1.224
 2247  LAT   Au 2787   6.732   5.508   1.224
 2248  LAT   Au 2788   6.528   5.508   1.428
 2249  LAT   Au 2789   6.732   5.304   1.428
 2250  LAT   Au 2790   6.936   5.304   1.224
 2251  LAT   Au 2791   7.140   5.508   1.224
 2252  LAT   Au 2792   6.936   5.508   1.428
 2253  LAT   Au 2793   7.140   5.304   1.428
 2254  LAT   Au 2794   0.000   5.712   1.224
 2255  LAT   Au 2795   0.204   5.916   1.224
 2256  LAT   Au 2796   0.000   5.916   1.428
 2257  LAT   Au 2797   0.204   5.712   1.428
 2258  LAT   Au 2798   0.408   5.712   1.224
 2259  LAT   Au 2799   0.612   5.916   1.224
 2260  LAT   Au 2800   0.408   5.916   1.428
 2261  LAT   Au 2801   0.612   5.712   1.428
 2262  LAT   Au 2802   0.816   5.712   1.224
 2263  LAT   Au 2803   1.020   5.916   1.224
 2264  LAT   Au 2804   0.816   5.916   1.428
 2265  LAT   Au 2805   1.020   5.712   1.428
 2266  LAT   Au 2806   1.224   5.712   1.224
 2267  LAT   Au 2807   1.428   5.916   1.224
 2268  LAT   Au 2808   1.224   5.916   1.428
 2269  LAT   Au 2809   1.428   5.712   1.428
 2270  LAT   Au 2810   1.632   5.916   1.428
 2271  LAT   Au 2811   5.508   5.916   1.224
 2272  LAT   Au 2812   5.916   5.916   1.224
 2273  LAT   Au 2813   5.712   5.916   1.428
 2274  LAT   Au 2814   5.916   5.712   1.428
 2275  LAT   Au 2815   6.120   5.712   1.224
 2276  LAT   Au 2816   6.324   5.916   1.224
 2277  LAT   Au 2817   6.120   5.916   1.428
 2278  LAT   Au 2818   6.324   5.712   1.428
 2279  LAT   Au 2819   6.528   5.712   1.224
 2280  LAT   Au 2820   6.732   5.916   1.224
 2281  LAT   Au 2821   6.528   5.916   1.428
 2282  LAT   Au 2822   6.732   5.712   1.428
 2283  LAT   Au 2823   6.936   5.712   1.224
 2284  LAT   Au 2824   7.140   5.916   1.224
 2285  LAT   Au 2825   6.936   5.916   1.428
 2286  LAT   Au 2826   7.140   5.712   1.428
 2287  LAT   Au 2827   0.000   6.120   1.224
 2288  LAT   Au 2828   0.204   6.324   1.224
 2289  LAT   Au 2829   0.000   6.324   1.428
 2290  LAT   Au 2830   0.204   6.120   1.428
 2291  LAT   Au 2831   0.408   6.120   1.224
 2292  LAT   Au 2832   0.612   6.324   1.224
 2293  LAT   Au 2833   0.408   6.324   1.428
 2294  LAT   Au 2834   0.612   6.120   1.428
 2295  LAT   Au 2835   0.816   6.120   1.224
 2296  LAT   Au 2836   1.020   6.324   1.224
 2297  LAT   Au 2837   0.816   6.324   1.428
 2298  LAT   Au 2838   1.020   6.120   1.428
 2299  LAT   Au 2839   1.224   6.120   1.224
 2300  LAT   Au 2840   1.428   6.324   1.224
 2301  LAT   Au 2841   1.224   6.324   1.428
 2302  LAT   Au 2842   1.428   6.120   1.428
 2303  LAT   Au 2843   1.632   6.120   1.224
 2304  LAT   Au 2844   1.836   6.324   1.224
 2305  LAT   Au 2845   1.632   6.324   1.428
 2306  LAT   Au 2846   1.836   6.120   1.428
 2307  LAT   Au 2847   2.244   6.324   1.224
 2308  LAT   Au 2848   2.040   6.324   1.428
 2309  LAT   Au 2849   5.100   6.324   1.224
 2310  LAT   Au 2850   4.896   6.324   1.428
 2311  LAT   Au 2851   5.304   6.120   1.224
 2312  LAT   Au 2852   5.508   6.324   1.224
 2313  LAT   Au 2853   5.304   6.324   1.428
 2314  LAT   Au 2854   5.508   6.120   1.428
 2315  LAT   Au 2855   5.712   6.120   1.224
 2316  LAT   Au 2856   5.916   6.324   1.224
 2317  LAT   Au 2857   5.712   6.324   1.428
 2318  LAT   Au 2858   5.916   6.120   1.428
 2319  LAT   Au 2859   6.120   6.120   1.224
 2320  LAT   Au 2860   6.324   6.324   1.224
 2321  LAT   Au 2861   6.120   6.324   1.428
 2322  LAT   Au 2862   6.324   6.120   1.428
 2323  LAT   Au 2863   6.528   6.120   1.224
 2324  LAT   Au 2864   6.732   6.324   1.224
 2325  LAT   Au 2865   6.528   6.324   1.428
 2326  LAT   Au 2866   6.732   6.120   1.428
 2327  LAT   Au 2867   6.936   6.120   1.224
 2328  LAT   Au 2868   7.140   6.324   1.224
 2329  LAT   Au 2869   6.936   6.324   1.428
 2330  LAT   Au 2870   7.140   6.120   1.428
 2331  LAT   Au 2871   0.000   6.528   1.224
 2332  LAT   Au 2872   0.204   6.732   1.224
 2333  LAT   Au 2873   0.000   6.732   1.428
 2334  LAT   Au 2874   0.204   6.528   1.428
 2335  LAT   Au 2875   0.408   6.528   1.224
 2336  LAT   Au 2876   0.612   6.732   1.224
 2337  LAT   Au 2877   0.408   6.732   1.428
 2338  LAT   Au 2878   0.612   6.528   1.428
 2339  LAT   Au 2879   0.816   6.528   1.224
 2340  LAT   Au 2880   1.020   6.732   1.224
 2341  LAT   Au 2881   0.816   6.732   1.428
 2342  LAT   Au 2882   1.020   6.528   1.428
 2343  LAT   Au 2883   1.224   6.528   1.224
 2344  LAT   Au 2884   1.428   6.732   1.224
 2345  LAT   Au 2885   1.224   6.732   1.428
 2346  LAT   Au 2886   1.428   6.528   1.428
 2347  LAT   Au 2887   1.632   6.528   1.224
 2348  LAT   Au 2888   1.836   6.732   1.224
 2349  LAT   Au 2889   1.632   6.732   1.428
 2350  LAT   Au 2890   1.836   6.528   1.428
 2351  LAT   Au 2891   2.040   6.528   1.224
 2352  LAT   Au 2892   2.244   6.732   1.224
 2353  LAT   Au 2893   2.040   6.732   1.428
 2354  LAT   Au 2894   2.244   6.528   1.428
 2355  LAT   Au 2895   2.448   6.528   1.224
 2356  LAT   Au 2896   2.652   6.732   1.224
 2357  LAT   Au 2897   2.448   6.732   1.428
 2358  LAT   Au 2898   2.652   6.528   1.428
 2359  LAT   Au 2899   2.856   6.528   1.224
 2360  LAT   Au 2900   3.060   6.732   1.224
 2361  LAT   Au 2901   2.856   6.732   1.428
 2362  LAT   Au 2902   3.468   6.732   1.224
 2363  LAT   Au 2903   3.264   6.732   1.428
 2364  LAT   Au 2904   3.876   6.732   1.224
 2365  LAT   Au 2905   3.672   6.732   1.428
 2366  LAT   Au 2906   4.284   6.732   1.224
 2367  LAT   Au 2907   4.080   6.732   1.428
 2368  LAT   Au 2908   4.284   6.528   1.428
 2369  LAT   Au 2909   4.488   6.528   1.224
 2370  LAT   Au 2910   4.692   6.732   1.224
 2371  LAT   Au 2911   4.488   6.732   1.428
 2372  LAT   Au 2912   4.692   6.528   1.428
 2373  LAT   Au 2913   4.896   6.528   1.224
 2374  LAT   Au 2914   5.100   6.732   1.224
 2375  LAT   Au 2915   4.896   6.732   1.428
 2376  LAT   Au 2916   5.100   6.528   1.428
 2377  LAT   Au 2917   5.304   6.528   1.224
 2378  LAT   Au 2918   5.508   6.732   1.224
 2379  LAT   Au 2919   5.304   6.732   1.428
 2380  LAT   Au 2920   5.508   6.528   1.428
 2381  LAT   Au 2921   5.712   6.528   1.224
 2382  LAT   Au 2922   5.916   6.732   1.224
 2383  LAT   Au 2923   5.712   6.732   1.428
 2384  LAT   Au 2924   5.916   6.528   1.428
 2385  LAT   Au 2925   6.120   6.528   1.224
 2386  LAT   Au 2926   6.324   6.732   1.224
 2387  LAT   Au 2927   6.120   6.732   1.428
 2388  LAT   Au 2928   6.324   6.528   1.428
 2389  LAT   Au 2929   6.528   6.528   1.224
 2390  LAT   Au 2930   6.732   6.732   1.224
 2391  LAT   Au 2931   6.528   6.732   1.428
 2392  LAT   Au 2932   6.732   6.528   1.428
 2393  LAT   Au 2933   6.936   6.528   1.224
 2394  LAT   Au 2934   7.140   6.732   1.224
 2395  LAT   Au 2935   6.936   6.732   1.428
 2396  LAT   Au 2936   7.140   6.528   1.428
 2397  LAT   Au 2937   0.000   6.936   1.224
 2398  LAT   Au 2938   0.204   7.140   1.224
 2399  LAT   Au 2939   0.000   7.140   1.428
 2400  LAT   Au 2940   0.204   6.936   1.428
 2401  LAT   Au 2941   0.408   6.936   1.224
 2402  LAT   Au 2942   0.612   7.140   1.224
 2403  LAT   Au 2943   0.408   7.140   1.428
 2404  LAT   Au 2944   0.612   6.936   1.428
 2405  LAT   Au 2945   0.816   6.936   1.224
 2406  LAT   Au 2946   1.020   7.140   1.224
 2407  LAT   Au 2947   0.816   7.140   1.428
 2408  LAT   Au 2948   1.020   6.936   1.428
 2409  LAT   Au 2949   1.224   6.936   1.224
 2410  LAT   Au 2950   1.428   7.140   1.224
 2411  LAT   Au 2951   1.224   7.140   1.428
 2412  LAT   Au 2952   1.428   6.936   1.428
 2413  LAT   Au 2953   1.632   6.936   1.224
 2414  LAT   Au 2954   1.836   7.140   1.224
 2415  LAT   Au 2955   1.632   7.140   1.428
 2416  LAT   Au 2956   1.836   6.936   1.428
 2417  LAT   Au 2957   2.040   6.936   1.224
 2418  LAT   Au 2958   2.244   7.140   1.224
 2419  LAT   Au 2959   2.040   7.140   1.428
 2420  LAT   Au 2960   2.244   6.936   1.428
 2421  LAT   Au 2961   2.448   6.936   1.224
 2422  LAT   Au 2962   2.652   7.140   1.224
 2423  LAT   Au 2963   2.448   7.140   1.428
 2424  LAT   Au 2964   2.652   6.936   1.428
 2425  LAT   Au 2965   2.856   6.936   1.224
 2426  LAT   Au 2966   3.060   7.140   1.224
 2427  LAT   Au 2967   2.856   7.140   1.428
 2428  LAT   Au 2968   3.060   6.936   1.428
 2429  LAT   Au 2969   3.264   6.936   1.224
 2430  LAT   Au 2970   3.468   7.140   1.224
 2431  LAT   Au 2971   3.264   7.140   1.428
 2432  LAT   Au 2972   3.468   6.936   1.428
 2433  LAT   Au 2973   3.672   6.936   1.224
 2434  LAT   Au 2974   3.876   7.140   1.224
 2435  LAT   Au 2975   3.672   7.140   1.428
 2436  LAT   Au 2976   3.876   6.936   1.428
 2437  LAT   Au 2977   4.080   6.936   1.224
 2438  LAT   Au 2978   4.284   7.140   1.224
 2439  LAT   Au 2979   4.080   7.140   1.428
 2440  LAT   Au 2980   4.284   6.936   1.428
 2441  LAT   Au 2981   4.488   6.936   1.224
 2442  LAT   Au 2982   4.692   7.140   1.224
 2443  LAT   Au 2983   4.488   7.140   1.428
 2444  LAT   Au 2984   4.692   6.936   1.428
 2445  LAT   Au 2985   4.896   6.936   1.224
 2446  LAT   Au 2986   5.100   7.140   1.224
 2447  LAT   Au 2987   4.896   7.140   1.428
 2448  LAT   Au 2988   5.100   6.936   1.428
 2449  LAT   Au 2989   5.304   6.936   1.224
 2450  LAT   Au 2990   5.508   7.140   1.224
 2451  LAT   Au 2991   5.304   7.140   1.428
 2452  LAT   Au 2992   5.508   6.936   1.428
 2453  LAT   Au 2993   5.712   6.936   1.224
 2454  LAT   Au 2994   5.916   7.140   1.224
 2455  LAT   Au 2995   5.712   7.140   1.428
 2456  LAT   Au 2996   5.916   6.936   1.428
 2457  LAT   Au 2997   6.120   6.936   1.224
 2458  LAT   Au 2998   6.324   7.140   1.224
 2459  LAT   Au 2999   6.120   7.140   1.428
 2460  LAT   Au 3000   6.324   6.936   1.428
 2461  LAT   Au 3001   6.528   6.936   1.224
 2462  LAT   Au 3002   6.732   7.140   1.224
 2463  LAT   Au 3003   6.528   7.140   1.428
 2464  LAT   Au 3004   6.732   6.936   1.428
 2465  LAT   Au 3005   6.936   6.936   1.224
 2466  LAT   Au 3006   7.140   7.140   1.224
 2467  LAT   Au 3007   6.936   7.140   1.428
 2468  LAT   Au 3008   7.140   6.936   1.428
 2469  LAT   Au 3009   0.000   0.000   1.632
 2470  LAT   Au 3010   0.204   0.204   1.632
 2471  LAT   Au 3011   0.000   0.204   1.836
 2472  LAT   Au 3012   0.204   0.000   1.836
 2473  LAT   Au 3013   0.408   0.000   1.632
 2474  LAT   Au 3014   0.612   0.204   1.632
 2475  LAT   Au 3015   0.408   0.204   1.836
 2476  LAT   Au 3016   0.612   0.000   1.836
 2477  LAT   Au 3017   0.816   0.000   1.632
 2478  LAT   Au 3018   1.020   0.204   1.632
 2479  LAT   Au 3019   0.816   0.204   1.836
 2480  LAT   Au 3020   1.020   0.000   1.836
 2481  LAT   Au 3021   1.224   0.000   1.632
 2482  LAT   Au 3022   1.428   0.204   1.632
 2483  LAT   Au 3023   1.224   0.204   1.836
 2484  LAT   Au 3024   1.428   0.000   1.836
 2485  LAT   Au 3025   1.632   0.000   1.632
 2486  LAT   Au 3026   1.836   0.204   1.632
 2487  LAT   Au 3027   1.632   0.204   1.836
 2488  LAT   Au 3028   1.836   0.000   1.836
 2489  LAT   Au 3029   2.040   0.000   1.632
 2490  LAT   Au 3030   2.244   0.204   1.632
 2491  LAT   Au 3031   2.040   0.204   1.836
 2492  LAT   Au 3032   2.244   0.000   1.836
 2493  LAT   Au 3033   2.448   0.000   1.632
 2494  LAT   Au 3034   2.652   0.204   1.632
 2495  LAT   Au 3035   2.448   0.204   1.836
 2496  LAT   Au 3036   2.652   0.000   1.836
 2497  LAT   Au 3037   2.856   0.000   1.632
 2498  LAT   Au 3038   3.060   0.204   1.632
 2499  LAT   Au 3039   2.856   0.204   1.836
 2500  LAT   Au 3040   3.060   0.000   1.836
 2501  LAT   Au 3041   3.264   0.000   1.632
 2502  LAT   Au 3042   3.468   0.204   1.632
 2503  LAT   Au 3043   3.264   0.204   1.836
 2504  LAT   Au 3044   3.468   0.000   1.836
 2505  LAT   Au 3045   3.672   0.000   1.632
 2506  LAT   Au 3046   3.876   0.204   1.632
 2507  LAT   Au 3047   3.672   0.204   1.836
 2508  LAT   Au 3048   3.876   0.000   1.836
 2509  LAT   Au 3049   4.080   0.000   1.632
 2510  LAT   Au 3050   4.284   0.204   1.632
 2511  LAT   Au 3051   4.080   0.204   1.836
 2512  LAT   Au 3052   4.284   0.000   1.836
 2513  LAT   Au 3053   4.488   0.000   1.632
 2514  LAT   Au 3054   4.692   0.204   1.632
 2515  LAT   Au 3055   4.488   0.204   1.836
 2516  LAT   Au 3056   4.692   0.000   1.836
 2517  LAT   Au 3057   4.896   0.000   1.632
 2518  LAT   Au 3058   5.100   0.204   1.632
 2519  LAT   Au 3059   4.896   0.204   1.836
 2520  LAT   Au 3060   5.100   0.000   1.836
 2521  LAT   Au 3061   5.304   0.000   1.632
 2522  LAT   Au 3062   5.508   0.204   1.632
 2523  LAT   Au 3063   5.304   0.204   1.836
 2524  LAT   Au 3064   5.508   0.000   1.836
 2525  LAT   Au 3065   5.712   0.000   1.632
 2526  LAT   Au 3066   5.916   0.204   1.632
 2527  LAT   Au 3067   5.712   0.204   1.836
 2528  LAT   Au 3068   5.916   0.000   1.836
 2529  LAT   Au 3069   6.120   0.000   1.632
 2530  LAT   Au 3070   6.324   0.204   1.632
 2531  LAT   Au 3071   6.120   0.204   1.836
 2532  LAT   Au 3072   6.324   0.000   1.836
 2533  LAT   Au 3073   6.528   0.000   1.632
 2534  LAT   Au 3074   6.732   0.204   1.632
 2535  LAT   Au 3075   6.528   0.204   1.836
 2536  LAT   Au 3076   6.732   0.000   1.836
 2537  LAT   Au 3077   6.936   0.000   1.632
 2538  LAT   Au 3078   7.140   0.204   1.632
 2539  LAT   Au 3079   6.936   0.204   1.836
 2540  LAT   Au 3080   7.140   0.000   1.836
 2541  LAT   Au 3081   0.000   0.408   1.632
 2542  LAT   Au 3082   0.204   0.612   1.632
 2543  LAT   Au 3083   0.000   0.612   1.836
 2544  LAT   Au 3084   0.204   0.408   1.836
 2545  LAT   Au 3085   0.408   0.408   1.632
 2546  LAT   Au 3086   0.612   0.612   1.632
 2547  LAT   Au 3087   0.408   0.612   1.836
 2548  LAT   Au 3088   0.612   0.408   1.836
 2549  LAT   Au 3089   0.816   0.408   1.632
 2550  LAT   Au 3090   1.020   0.612   1.632
 2551  LAT   Au 3091   0.816   0.612   1.836
 2552  LAT   Au 3092   1.020   0.408   1.836
 2553  LAT   Au 3093   1.224   0.408   1.632
 2554  LAT   Au 3094   1.428   0.612   1.632
 2555  LAT   Au 3095   1.224   0.612   1.836
 2556  LAT   Au 3096   1.428   0.408   1.836
 2557  LAT   Au 3097   1.632   0.408   1.632
 2558  LAT   Au 3098   1.836   0.612   1.632
 2559  LAT   Au 3099   1.632   0.612   1.836
 2560  LAT   Au 3100   1.836   0.408   1.836
 2561  LAT   Au 3101   2.040   0.408   1.632
 2562  LAT   Au 3102   2.244   0.612   1.632
 2563  LAT   Au 3103   2.040   0.612   1.836
 2564  LAT   Au 3104   2.244   0.408   1.836
 2565  LAT   Au 3105   2.448   0.408   1.632
 2566  LAT   Au 3106   2.652   0.612   1.632
 2567  LAT   Au 3107   2.448   0.612   1.836
 2568  LAT   Au 3108   2.652   0.408   1.836
 2569  LAT   Au 3109   2.856   0.408   1.632
 2570  LAT   Au 3110   3.060   0.612   1.632
 2571  LAT   Au 3111   2.856   0.612   1.836
 2572  LAT   Au 3112   3.060   0.408   1.836
 2573  LAT   Au 3113   3.264   0.408   1.632
 2574  LAT   Au 3114   3.264   0.612   1.836
 2575  LAT   Au 3115   3.468   0.408   1.836
 2576  LAT   Au 3116   3.672   0.408   1.632
 2577  LAT   Au 3117   3.876   0.408   1.836
 2578  LAT   Au 3118   4.080   0.408   1.632
 2579  LAT   Au 3119   4.284   0.612   1.632
 2580  LAT   Au 3120   4.080   0.612   1.836
 2581  LAT   Au 3121   4.284   0.408   1.836
 2582  LAT   Au 3122   4.488   0.408   1.632
 2583  LAT   Au 3123   4.692   0.612   1.632
 2584  LAT   Au 3124   4.488   0.612   1.836
 2585  LAT   Au 3125   4.692   0.408   1.836
 2586  LAT   Au 3126   4.896   0.408   1.632
 2587  LAT   Au 3127   5.100   0.612   1.632
 2588  LAT   Au 3128   4.896   0.612   1.836
 2589  LAT   Au 3129   5.100   0.408   1.836
 2590  LAT   Au 3130   5.304   0.408   1.632
 2591  LAT   Au 3131   5.508   0.612   1.632
 2592  LAT   Au 3132   5.304   0.612   1.836
 2593  LAT   Au 3133   5.508   0.408   1.836
 2594  LAT   Au 3134   5.712   0.408   1.632
 2595  LAT   Au 3135   5.916   0.612   1.632
 2596  LAT   Au 3136   5.712   0.612   1.836
 2597  LAT   Au 3137   5.916   0.408   1.836
 2598  LAT   Au 3138   6.120   0.408   1.632
 2599  LAT   Au 3139   6.324   0.612   1.632
 2600  LAT   Au 3140   6.120   0.612   1.836
 2601  LAT   Au 3141   6.324   0.408   1.836
 2602  LAT   Au 3142   6.528   0.408   1.632
 2603  LAT   Au 3143   6.732   0.612   1.632
 2604  LAT   Au 3144   6.528   0.612   1.836
 2605  LAT   Au 3145   6.732   0.408   1.836
 2606  LAT   Au 3146   6.936   0.408   1.632
 2607  LAT   Au 3147   7.140   0.612   1.632
 2608  LAT   Au 3148   6.936   0.612   1.836
 2609  LAT   Au 3149   7.140   0.408   1.836
 2610  LAT   Au 3150   0.000   0.816   1.632
 2611  LAT   Au 3151   0.204   1.020   1.632
 2612  LAT   Au 3152   0.000   1.020   1.836
 2613  LAT   Au 3153   0.204   0.816   1.836
 2614  LAT   Au 3154   0.408   0.816   1.632
 2615  LAT   Au 3155   0.612   1.020   1.632
 2616  LAT   Au 3156   0.408   1.020   1.836
 2617  LAT   Au 3157   0.612   0.816   1.836
 2618  LAT   Au 3158   0.816   0.816   1.632
 2619  LAT   Au 3159   1.020   1.020   1.632
 2620  LAT   Au 3160   0.816   1.020   1.836
 2621  LAT   Au 3161   1.020   0.816   1.836
 2622  LAT   Au 3162   1.224   0.816   1.632
 2623  LAT   Au 3163   1.428   1.020   1.632
 2624  LAT   Au 3164   1.224   1.020   1.836
 2625  LAT   Au 3165   1.428   0.816   1.836
 2626  LAT   Au 3166   1.632   0.816   1.632
 2627  LAT   Au 3167   1.836   1.020   1.632
 2628  LAT   Au 3168   1.632   1.020   1.836
 2629  LAT   Au 3169   1.836   0.816   1.836
 2630  LAT   Au 3170   2.040   0.816   1.632
 2631  LAT   Au 3171   2.040   1.020   1.836
 2632  LAT   Au 3172   2.244   0.816   1.836
 2633  LAT   Au 3173   2.448   0.816   1.632
 2634  LAT   Au 3174   4.896   0.816   1.632
 2635  LAT   Au 3175   5.100   0.816   1.836
 2636  LAT   Au 3176   5.304   0.816   1.632
 2637  LAT   Au 3177   5.508   1.020   1.632
 2638  LAT   Au 3178   5.304   1.020   1.836
 2639  LAT   Au 3179   5.508   0.816   1.836
 2640  LAT   Au 3180   5.712   0.816   1.632
 2641  LAT   Au 3181   5.916   1.020   1.632
 2642  LAT   Au 3182   5.712   1.020   1.836
 2643  LAT   Au 3183   5.916   0.816   1.836
 2644  LAT   Au 3184   6.120   0.816   1.632
 2645  LAT   Au 3185   6.324   1.020   1.632
 2646  LAT   Au 3186   6.120   1.020   1.836
 2647  LAT   Au 3187   6.324   0.816   1.836
 2648  LAT   Au 3188   6.528   0.816   1.632
 2649  LAT   Au 3189   6.732   1.020   1.632
 2650  LAT   Au 3190   6.528   1.020   1.836
 2651  LAT   Au 3191   6.732   0.816   1.836
 2652  LAT   Au 3192   6.936   0.816   1.632
 2653  LAT   Au 3193   7.140   1.020   1.632
 2654  LAT   Au 3194   6.936   1.020   1.836
 2655  LAT   Au 3195   7.140   0.816   1.836
 2656  LAT   Au 3196   0.000   1.224   1.632
 2657  LAT   Au 3197   0.204   1.428   1.632
 2658  LAT   Au 3198   0.000   1.428   1.836
 2659  LAT   Au 3199   0.204   1.224   1.836
 2660  LAT   Au 3200   0.408   1.224   1.632
 2661  LAT   Au 3201   0.612   1.428   1.632
 2662  LAT   Au 3202   0.408   1.428   1.836
 2663  LAT   Au 3203   0.612   1.224   1.836
 2664  LAT   Au 3204   0.816   1.224   1.632
 2665  LAT   Au 3205   1.020   1.428   1.632
 2666  LAT   Au 3206   0.816   1.428   1.836
 2667  LAT   Au 3207   1.020   1.224   1.836
 2668  LAT   Au 3208   1.224   1.224   1.632
 2669  LAT   Au 3209   1.428   1.428   1.632
 2670  LAT   Au 3210   1.224   1.428   1.836
 2671  LAT   Au 3211   1.428   1.224   1.836
 2672  LAT   Au 3212   1.632   1.224   1.632
 2673  LAT   Au 3213   5.508   1.224   1.836
 2674  LAT   Au 3214   5.712   1.224   1.632
 2675  LAT   Au 3215   5.916   1.428   1.632
 2676  LAT   Au 3216   5.712   1.428   1.836
 2677  LAT   Au 3217   5.916   1.224   1.836
 2678  LAT   Au 3218   6.120   1.224   1.632
 2679  LAT   Au 3219   6.324   1.428   1.632
 2680  LAT   Au 3220   6.120   1.428   1.836
 2681  LAT   Au 3221   6.324   1.224   1.836
 2682  LAT   Au 3222   6.528   1.224   1.632
 2683  LAT   Au 3223   6.732   1.428   1.632
 2684  LAT   Au 3224   6.528   1.428   1.836
 2685  LAT   Au 3225   6.732   1.224   1.836
 2686  LAT   Au 3226   6.936   1.224   1.632
 2687  LAT   Au 3227   7.140   1.428   1.632
 2688  LAT   Au 3228   6.936   1.428   1.836
 2689  LAT   Au 3229   7.140   1.224   1.836
 2690  LAT   Au 3230   0.000   1.632   1.632
 2691  LAT   Au 3231   0.204   1.836   1.632
 2692  LAT   Au 3232   0.000   1.836   1.836
 2693  LAT   Au 3233   0.204   1.632   1.836
 2694  LAT   Au 3234   0.408   1.632   1.632
 2695  LAT   Au 3235   0.612   1.836   1.632
 2696  LAT   Au 3236   0.408   1.836   1.836
 2697  LAT   Au 3237   0.612   1.632   1.836
 2698  LAT   Au 3238   0.816   1.632   1.632
 2699  LAT   Au 3239   1.020   1.836   1.632
 2700  LAT   Au 3240   0.816   1.836   1.836
 2701  LAT   Au 3241   1.020   1.632   1.836
 2702  LAT   Au 3242   1.224   1.632   1.632
 2703  LAT   Au 3243   5.916   1.632   1.836
 2704  LAT   Au 3244   6.120   1.632   1.632
 2705  LAT   Au 3245   6.324   1.836   1.632
 2706  LAT   Au 3246   6.120   1.836   1.836
 2707  LAT   Au 3247   6.324   1.632   1.836
 2708  LAT   Au 3248   6.528   1.632   1.632
 2709  LAT   Au 3249   6.732   1.836   1.632
 2710  LAT   Au 3250   6.528   1.836   1.836
 2711  LAT   Au 3251   6.732   1.632   1.836
 2712  LAT   Au 3252   6.936   1.632   1.632
 2713  LAT   Au 3253   7.140   1.836   1.632
 2714  LAT   Au 3254   6.936   1.836   1.836
 2715  LAT   Au 3255   7.140   1.632   1.836
 2716  LAT   Au 3256   0.000   2.040   1.632
 2717  LAT   Au 3257   0.204   2.244   1.632
 2718  LAT   Au 3258   0.000   2.244   1.836
 2719  LAT   Au 3259   0.204   2.040   1.836
 2720  LAT   Au 3260   0.408   2.040   1.632
 2721  LAT   Au 3261   0.612   2.244   1.632
 2722  LAT   Au 3262   0.408   2.244   1.836
 2723  LAT   Au 3263   0.612   2.040   1.836
 2724  LAT   Au 3264   0.816   2.040   1.632
 2725  LAT   Au 3265   0.816   2.244   1.836
 2726  LAT   Au 3266   1.020   2.040   1.836
 2727  LAT   Au 3267   6.324   2.244   1.632
 2728  LAT   Au 3268   6.324   2.040   1.836
 2729  LAT   Au 3269   6.528   2.040   1.632
 2730  LAT   Au 3270   6.732   2.244   1.632
 2731  LAT   Au 3271   6.528   2.244   1.836
 2732  LAT   Au 3272   6.732   2.040   1.836
 2733  LAT   Au 3273   6.936   2.040   1.632
 2734  LAT   Au 3274   7.140   2.244   1.632
 2735  LAT   Au 3275   6.936   2.244   1.836
 2736  LAT   Au 3276   7.140   2.040   1.836
 2737  LAT   Au 3277   0.000   2.448   1.632
 2738  LAT   Au 3278   0.204   2.652   1.632
 2739  LAT   Au 3279   0.000   2.652   1.836
 2740  LAT   Au 3280   0.204   2.448   1.836
 2741  LAT   Au 3281   0.408   2.448   1.632
 2742  LAT   Au 3282   0.612   2.652   1.632
 2743  LAT   Au 3283   0.408   2.652   1.836
 2744  LAT   Au 3284   0.612   2.448   1.836
 2745  LAT   Au 3285   0.816   2.448   1.632
 2746  LAT   Au 3286   6.528   2.448   1.632
 2747  LAT   Au 3287   6.732   2.652   1.632
 2748  LAT   Au 3288   6.528   2.652   1.836
 2749  LAT   Au 3289   6.732   2.448   1.836
 2750  LAT   Au 3290   6.936   2.448   1.632
 2751  LAT   Au 3291   7.140   2.652   1.632
 2752  LAT   Au 3292   6.936   2.652   1.836
 2753  LAT   Au 3293   7.140   2.448   1.836
 2754  LAT   Au 3294   0.000   2.856   1.632
 2755  LAT   Au 3295   0.204   3.060   1.632
 2756  LAT   Au 3296   0.000   3.060   1.836
 2757  LAT   Au 3297   0.204   2.856   1.836
 2758  LAT   Au 3298   0.408   2.856   1.632
 2759  LAT   Au 3299   0.612   3.060   1.632
 2760  LAT   Au 3300   0.408   3.060   1.836
 2761  LAT   Au 3301   0.612   2.856   1.836
 2762  LAT   Au 3302   6.528   2.856   1.632
 2763  LAT   Au 3303   6.732   3.060   1.632
 2764  LAT   Au 3304   6.732   2.856   1.836
 2765  LAT   Au 3305   6.936   2.856   1.632
 2766  LAT   Au 3306   7.140   3.060   1.632
 2767  LAT   Au 3307   6.936   3.060   1.836
 2768  LAT   Au 3308   7.140   2.856   1.836
 2769  LAT   Au 3309   0.000   3.264   1.632
 2770  LAT   Au 3310   0.204   3.468   1.632
 2771  LAT   Au 3311   0.000   3.468   1.836
 2772  LAT   Au 3312   0.204   3.264   1.836
 2773  LAT   Au 3313   0.408   3.264   1.632
 2774  LAT   Au 3314   0.408   3.468   1.836
 2775  LAT   Au 3315   0.612   3.264   1.836
 2776  LAT   Au 3316   6.732   3.468   1.632
 2777  LAT   Au 3317   6.732   3.264   1.836
 2778  LAT   Au 3318   6.936   3.264   1.632
 2779  LAT   Au 3319   7.140   3.468   1.632
 2780  LAT   Au 3320   6.936   3.468   1.836
 2781  LAT   Au 3321   7.140   3.264   1.836
 2782  LAT   Au 3322   0.000   3.672   1.632
 2783  LAT   Au 3323   0.204   3.876   1.632
 2784  LAT   Au 3324   0.000   3.876   1.836
 2785  LAT   Au 3325   0.204   3.672   1.836
 2786  LAT   Au 3326   0.408   3.672   1.632
 2787  LAT   Au 3327   0.408   3.876   1.836
 2788  LAT   Au 3328   6.732   3.876   1.632
 2789  LAT   Au 3329   6.732   3.672   1.836
 2790  LAT   Au 3330   6.936   3.672   1.632
 2791  LAT   Au 3331   7.140   3.876   1.632
 2792  LAT   Au 3332   6.936   3.876   1.836
 2793  LAT   Au 3333   7.140   3.672   1.836
 2794  LAT   Au 3334   0.000   4.080   1.632
 2795  LAT   Au 3335   0.204   4.284   1.632
 2796  LAT   Au 3336   0.000   4.284   1.836
 2797  LAT   Au 3337   0.204   4.080   1.836
 2798  LAT   Au 3338   0.408   4.080   1.632
 2799  LAT   Au 3339   0.612   4.284   1.632
 2800  LAT   Au 3340   0.408   4.284   1.836
 2801  LAT   Au 3341   0.612   4.080   1.836
 2802  LAT   Au 3342   6.732   4.284   1.632
 2803  LAT   Au 3343   6.528   4.284   1.836
 2804  LAT   Au 3344   6.732   4.080   1.836
 2805  LAT   Au 3345   6.936   4.080   1.632
 2806  LAT   Au 3346   7.140   4.284   1.632
 2807  LAT   Au 3347   6.936   4.284   1.836
 2808  LAT   Au 3348   7.140   4.080   1.836
 2809  LAT   Au 3349   0.000   4.488   1.632
 2810  LAT   Au 3350   0.204   4.692   1.632
 2811  LAT   Au 3351   0.000   4.692   1.836
 2812  LAT   Au 3352   0.204   4.488   1.836
 2813  LAT   Au 3353   0.408   4.488   1.632
 2814  LAT   Au 3354   0.612   4.692   1.632
 2815  LAT   Au 3355   0.408   4.692   1.836
 2816  LAT   Au 3356   0.612   4.488   1.836
 2817  LAT   Au 3357   6.528   4.488   1.632
 2818  LAT   Au 3358   6.732   4.692   1.632
 2819  LAT   Au 3359   6.528   4.692   1.836
 2820  LAT   Au 3360   6.732   4.488   1.836
 2821  LAT   Au 3361   6.936   4.488   1.632
 2822  LAT   Au 3362   7.140   4.692   1.632
 2823  LAT   Au 3363   6.936   4.692   1.836
 2824  LAT   Au 3364   7.140   4.488   1.836
 2825  LAT   Au 3365   0.000   4.896   1.632
 2826  LAT   Au 3366   0.204   5.100   1.632
 2827  LAT   Au 3367   0.000   5.100   1.836
 2828  LAT   Au 3368   0.204   4.896   1.836
 2829  LAT   Au 3369   0.408   4.896   1.632
 2830  LAT   Au 3370   0.612   5.100   1.632
 2831  LAT   Au 3371   0.408   5.100   1.836
 2832  LAT   Au 3372   0.612   4.896   1.836
 2833  LAT   Au 3373   0.816   4.896   1.632
 2834  LAT   Au 3374   0.816   5.100   1.836
 2835  LAT   Au 3375   6.324   5.100   1.632
 2836  LAT   Au 3376   6.324   4.896   1.836
 2837  LAT   Au 3377   6.528   4.896   1.632
 2838  LAT   Au 3378   6.732   5.100   1.632
 2839  LAT   Au 3379   6.528   5.100   1.836
 2840  LAT   Au 3380   6.732   4.896   1.836
 2841  LAT   Au 3381   6.936   4.896   1.632
 2842  LAT   Au 3382   7.140   5.100   1.632
 2843  LAT   Au 3383   6.936   5.100   1.836
 2844  LAT   Au 3384   7.140   4.896   1.836
 2845  LAT   Au 3385   0.000   5.304   1.632
 2846  LAT   Au 3386   0.204   5.508   1.632
 2847  LAT   Au 3387   0.000   5.508   1.836
 2848  LAT   Au 3388   0.204   5.304   1.836
 2849  LAT   Au 3389   0.408   5.304   1.632
 2850  LAT   Au 3390   0.612   5.508   1.632
 2851  LAT   Au 3391   0.408   5.508   1.836
 2852  LAT   Au 3392   0.612   5.304   1.836
 2853  LAT   Au 3393   0.816   5.304   1.632
 2854  LAT   Au 3394   1.020   5.508   1.632
 2855  LAT   Au 3395   0.816   5.508   1.836
 2856  LAT   Au 3396   1.020   5.304   1.836
 2857  LAT   Au 3397   1.224   5.508   1.836
 2858  LAT   Au 3398   5.916   5.508   1.632
 2859  LAT   Au 3399   6.120   5.304   1.632
 2860  LAT   Au 3400   6.324   5.508   1.632
 2861  LAT   Au 3401   6.120   5.508   1.836
 2862  LAT   Au 3402   6.324   5.304   1.836
 2863  LAT   Au 3403   6.528   5.304   1.632
 2864  LAT   Au 3404   6.732   5.508   1.632
 2865  LAT   Au 3405   6.528   5.508   1.836
 2866  LAT   Au 3406   6.732   5.304   1.836
 2867  LAT   Au 3407   6.936   5.304   1.632
 2868  LAT   Au 3408   7.140   5.508   1.632
 2869  LAT   Au 3409   6.936   5.508   1.836
 2870  LAT   Au 3410   7.140   5.304   1.836
 2871  LAT   Au 3411   0.000   5.712   1.632
 2872  LAT   Au 3412   0.204   5.916   1.632
 2873  LAT   Au 3413   0.000   5.916   1.836
 2874  LAT   Au 3414   0.204   5.712   1.836
 2875  LAT   Au 3415   0.408   5.712   1.632
 2876  LAT   Au 3416   0.612   5.916   1.632
 2877  LAT   Au 3417   0.408   5.916   1.836
 2878  LAT   Au 3418   0.612   5.712   1.836
 2879  LAT   Au 3419   0.816   5.712   1.632
 2880  LAT   Au 3420   1.020   5.916   1.632
 2881  LAT   Au 3421   0.816   5.916   1.836
 2882  LAT   Au 3422   1.020   5.712   1.836
 2883  LAT   Au 3423   1.224   5.712   1.632
 2884  LAT   Au 3424   1.428   5.916   1.632
 2885  LAT   Au 3425   1.224   5.916   1.836
 2886  LAT   Au 3426   1.428   5.712   1.836
 2887  LAT   Au 3427   1.632   5.916   1.836
 2888  LAT   Au 3428   5.508   5.916   1.632
 2889  LAT   Au 3429   5.916   5.916   1.632
 2890  LAT   Au 3430   5.712   5.916   1.836
 2891  LAT   Au 3431   5.916   5.712   1.836
 2892  LAT   Au 3432   6.120   5.712   1.632
 2893  LAT   Au 3433   6.324   5.916   1.632
 2894  LAT   Au 3434   6.120   5.916   1.836
 2895  LAT   Au 3435   6.324   5.712   1.836
 2896  LAT   Au 3436   6.528   5.712   1.632
 2897  LAT   Au 3437   6.732   5.916   1.632
 2898  LAT   Au 3438   6.528   5.916   1.836
 2899  LAT   Au 3439   6.732   5.712   1.836
 2900  LAT   Au 3440   6.936   5.712   1.632
 2901  LAT   Au 3441   7.140   5.916   1.632
 2902  LAT   Au 3442   6.936   5.916   1.836
 2903  LAT   Au 3443   7.140   5.712   1.836
 2904  LAT   Au 3444   0.000   6.120   1.632
 2905  LAT   Au 3445   0.204   6.324   1.632
 2906  LAT   Au 3446   0.000   6.324   1.836
 2907  LAT   Au 3447   0.204   6.120   1.836
 2908  LAT   Au 3448   0.408   6.120   1.632
 2909  LAT   Au 3449   0.612   6.324   1.632
 2910  LAT   Au 3450   0.408   6.324   1.836
 2911  LAT   Au 3451   0.612   6.120   1.836
 2912  LAT   Au 3452   0.816   6.120   1.632
 2913  LAT   Au 3453   1.020   6.324   1.632
 2914  LAT   Au 3454   0.816   6.324   1.836
 2915  LAT   Au 3455   1.020   6.120   1.836
 2916  LAT   Au 3456   1.224   6.120   1.632
 2917  LAT   Au 3457   1.428   6.324   1.632
 2918  LAT   Au 3458   1.224   6.324   1.836
 2919  LAT   Au 3459   1.428   6.120   1.836
 2920  LAT   Au 3460   1.632   6.120   1.632
 2921  LAT   Au 3461   1.836   6.324   1.632
 2922  LAT   Au 3462   1.632   6.324   1.836
 2923  LAT   Au 3463   1.836   6.120   1.836
 2924  LAT   Au 3464   2.244   6.324   1.632
 2925  LAT   Au 3465   2.040   6.324   1.836
 2926  LAT   Au 3466   5.100   6.324   1.632
 2927  LAT   Au 3467   4.896   6.324   1.836
 2928  LAT   Au 3468   5.304   6.120   1.632
 2929  LAT   Au 3469   5.508   6.324   1.632
 2930  LAT   Au 3470   5.304   6.324   1.836
 2931  LAT   Au 3471   5.508   6.120   1.836
 2932  LAT   Au 3472   5.712   6.120   1.632
 2933  LAT   Au 3473   5.916   6.324   1.632
 2934  LAT   Au 3474   5.712   6.324   1.836
 2935  LAT   Au 3475   5.916   6.120   1.836
 2936  LAT   Au 3476   6.120   6.120   1.632
 2937  LAT   Au 3477   6.324   6.324   1.632
 2938  LAT   Au 3478   6.120   6.324   1.836
 2939  LAT   Au 3479   6.324   6.120   1.836
 2940  LAT   Au 3480   6.528   6.120   1.632
 2941  LAT   Au 3481   6.732   6.324   1.632
 2942  LAT   Au 3482   6.528   6.324   1.836
 2943  LAT   Au 3483   6.732   6.120   1.836
 2944  LAT   Au 3484   6.936   6.120   1.632
 2945  LAT   Au 3485   7.140   6.324   1.632
 2946  LAT   Au 3486   6.936   6.324   1.836
 2947  LAT   Au 3487   7.140   6.120   1.836
 2948  LAT   Au 3488   0.000   6.528   1.632
 2949  LAT   Au 3489   0.204   6.732   1.632
 2950  LAT   Au 3490   0.000   6.732   1.836
 2951  LAT   Au 3491   0.204   6.528   1.836
 2952  LAT   Au 3492   0.408   6.528   1.632
 2953  LAT   Au 3493   0.612   6.732   1.632
 2954  LAT   Au 3494   0.408   6.732   1.836
 2955  LAT   Au 3495   0.612   6.528   1.836
 2956  LAT   Au 3496   0.816   6.528   1.632
 2957  LAT   Au 3497   1.020   6.732   1.632
 2958  LAT   Au 3498   0.816   6.732   1.836
 2959  LAT   Au 3499   1.020   6.528   1.836
 2960  LAT   Au 3500   1.224   6.528   1.632
 2961  LAT   Au 3501   1.428   6.732   1.632
 2962  LAT   Au 3502   1.224   6.732   1.836
 2963  LAT   Au 3503   1.428   6.528   1.836
 2964  LAT   Au 3504   1.632   6.528   1.632
 2965  LAT   Au 3505   1.836   6.732   1.632
 2966  LAT   Au 3506   1.632   6.732   1.836
 2967  LAT   Au 3507   1.836   6.528   1.836
 2968  LAT   Au 3508   2.040   6.528   1.632
 2969  LAT   Au 3509   2.244   6.732   1.632
 2970  LAT   Au 3510   2.040   6.732   1.836
 2971  LAT   Au 3511   2.244   6.528   1.836
 2972  LAT   Au 3512   2.448   6.528   1.632
 2973  LAT   Au 3513   2.652   6.732   1.632
 2974  LAT   Au 3514   2.448   6.732   1.836
 2975  LAT   Au 3515   2.652   6.528   1.836
 2976  LAT   Au 3516   2.856   6.528   1.632
 2977  LAT   Au 3517   3.060   6.732   1.632
 2978  LAT   Au 3518   2.856   6.732   1.836
 2979  LAT   Au 3519   3.468   6.732   1.632
 2980  LAT   Au 3520   3.264   6.732   1.836
 2981  LAT   Au 3521   3.876   6.732   1.632
 2982  LAT   Au 3522   3.672   6.732   1.836
 2983  LAT   Au 3523   4.284   6.732   1.632
 2984  LAT   Au 3524   4.080   6.732   1.836
 2985  LAT   Au 3525   4.284   6.528   1.836
 2986  LAT   Au 3526   4.488   6.528   1.632
 2987  LAT   Au 3527   4.692   6.732   1.632
 2988  LAT   Au 3528   4.488   6.732   1.836
 2989  LAT   Au 3529   4.692   6.528   1.836
 2990  LAT   Au 3530   4.896   6.528   1.632
 2991  LAT   Au 3531   5.100   6.732   1.632
 2992  LAT   Au 3532   4.896   6.732   1.836
 2993  LAT   Au 3533   5.100   6.528   1.836
 2994  LAT   Au 3534   5.304   6.528   1.632
 2995  LAT   Au 3535   5.508   6.732   1.632
 2996  LAT   Au 3536   5.304   6.732   1.836
 2997  LAT   Au 3537   5.508   6.528   1.836
 2998  LAT   Au 3538   5.712   6.528   1.632
 2999  LAT   Au 3539   5.916   6.732   1.632
 3000  LAT   Au 3540   5.712   6.732   1.836
 3001  LAT   Au 3541   5.916   6.528   1.836
 3002  LAT   Au 3542   6.120   6.528   1.632
 3003  LAT   Au 3543   6.324   6.732   1.632
 3004  LAT   Au 3544   6.120   6.732   1.836
 3005  LAT   Au 3545   6.324   6.528   1.836
 3006  LAT   Au 3546   6.528   6.528   1.632
 3007  LAT   Au 3547   6.732   6.732   1.632
 3008  LAT   Au 3548   6.528   6.732   1.836
 3009  LAT   Au 3549   6.732   6.528   1.836
 3010  LAT   Au 3550   6.936   6.528   1.632
 3011  LAT   Au 3551   7.140   6.732   1.632
 3012  LAT   Au 3552   6.936   6.732   1.836
 3013  LAT   Au 3553   7.140   6.528   1.836
 3014  LAT   Au 3554   0.000   6.936   1.632
 3015  LAT   Au 3555   0.204   7.140   1.632
 3016  LAT   Au 3556   0.000   7.140   1.836
 3017  LAT   Au 3557   0.204   6.936   1.836
 3018  LAT   Au 3558   0.408   6.936   1.632
 3019  LAT   Au 3559   0.612   7.140   1.632
 3020  LAT   Au 3560   0.408   7.140   1.836
 3021  LAT   Au 3561   0.612   6.936   1.836
 3022  LAT   Au 3562   0.816   6.936   1.632
 3023  LAT   Au 3563   1.020   7.140   1.632
 3024  LAT   Au 3564   0.816   7.140   1.836
 3025  LAT   Au 3565   1.020   6.936   1.836
 3026  LAT   Au 3566   1.224   6.936   1.632
 3027  LAT   Au 3567   1.428   7.140   1.632
 3028  LAT   Au 3568   1.224   7.140   1.836
 3029  LAT   Au 3569   1.428   6.936   1.836
 3030  LAT   Au 3570   1.632   6.936   1.632
 3031  LAT   Au 3571   1.836   7.140   1.632
 3032  LAT   Au 3572   1.632   7.140   1.836
 3033  LAT   Au 3573   1.836   6.936   1.836
 3034  LAT   Au 3574   2.040   6.936   1.632
 3035  LAT   Au 3575   2.244   7.140   1.632
 3036  LAT   Au 3576   2.040   7.140   1.836
 3037  LAT   Au 3577   2.244   6.936   1.836
 3038  LAT   Au 3578   2.448   6.936   1.632
 3039  LAT   Au 3579   2.652   7.140   1.632
 3040  LAT   Au 3580   2.448   7.140   1.836
 3041  LAT   Au 3581   2.652   6.936   1.836
 3042  LAT   Au 3582   2.856   6.936   1.632
 3043  LAT   Au 3583   3.060   7.140   1.632
 3044  LAT   Au 3584   2.856   7.140   1.836
 3045  LAT   Au 3585   3.060   6.936   1.836
 3046  LAT   Au 3586   3.264   6.936   1.632
 3047  LAT   Au 3587   3.468   7.140   1.632
 3048  LAT   Au 3588   3.264   7.140   1.836
 3049  LAT   Au 3589   3.468   6.936   1.836
 3050  LAT   Au 3590   3.672   6.936   1.632
 3051  LAT   Au 3591   3.876   7.140   1.632
 3052  LAT   Au 3592   3.672   7.140   1.836
 3053  LAT   Au 3593   3.876   6.936   1.836
 3054  LAT   Au 3594   4.080   6.936   1.632
 3055  LAT   Au 3595   4.284   7.140   1.632
 3056  LAT   Au 3596   4.080   7.140   1.836
 3057  LAT   Au 3597   4.284   6.936   1.836
 3058  LAT   Au 3598   4.488   6.936   1.632
 3059  LAT   Au 3599   4.692   7.140   1.632
 3060  LAT   Au 3600   4.488   7.140   1.836
 3061  LAT   Au 3601   4.692   6.936   1.836
 3062  LAT   Au 3602   4.896   6.936   1.632
 3063  LAT   Au 3603   5.100   7.140   1.632
 3064  LAT   Au 3604   4.896   7.140   1.836
 3065  LAT   Au 3605   5.100   6.936   1.836
 3066  LAT   Au 3606   5.304   6.936   1.632
 3067  LAT   Au 3607   5.508   7.140   1.632
 3068  LAT   Au 3608   5.304   7.140   1.836
 3069  LAT   Au 3609   5.508   6.936   1.836
 3070  LAT   Au 3610   5.712   6.936   1.632
 3071  LAT   Au 3611   5.916   7.140   1.632
 3072  LAT   Au 3612   5.712   7.140   1.836
 3073  LAT   Au 3613   5.916   6.936   1.836
 3074  LAT   Au 3614   6.120   6.936   1.632
 3075  LAT   Au 3615   6.324   7.140   1.632
 3076  LAT   Au 3616   6.120   7.140   1.836
 3077  LAT   Au 3617   6.324   6.936   1.836
 3078  LAT   Au 3618   6.528   6.936   1.632
 3079  LAT   Au 3619   6.732   7.140   1.632
 3080  LAT   Au 3620   6.528   7.140   1.836
 3081  LAT   Au 3621   6.732   6.936   1.836
 3082  LAT   Au 3622   6.936   6.936   1.632
 3083  LAT   Au 3623   7.140   7.140   1.632
 3084  LAT   Au 3624   6.936   7.140   1.836
 3085  LAT   Au 3625   7.140   6.936   1.836
 3086  LAT   Au 3626   0.000   0.000   2.040
 3087  LAT   Au 3627   0.204   0.204   2.040
 3088  LAT   Au 3628   0.000   0.204   2.244
 3089  LAT   Au 3629   0.204   0.000   2.244
 3090  LAT   Au 3630   0.408   0.000   2.040
 3091  LAT   Au 3631   0.612   0.204   2.040
 3092  LAT   Au 3632   0.408   0.204   2.244
 3093  LAT   Au 3633   0.612   0.000   2.244
 3094  LAT   Au 3634   0.816   0.000   2.040
 3095  LAT   Au 3635   1.020   0.204   2.040
 3096  LAT   Au 3636   0.816   0.204   2.244
 3097  LAT   Au 3637   1.020   0.000   2.244
 3098  LAT   Au 3638   1.224   0.000   2.040
 3099  LAT   Au 3639   1.428   0.204   2.040
 3100  LAT   Au 3640   1.224   0.204   2.244
 3101  LAT   Au 3641   1.428   0.000   2.244
 3102  LAT   Au 3642   1.632   0.000   2.040
 3103  LAT   Au 3643   1.836   0.204   2.040
 3104  LAT   Au 3644   1.632   0.204   2.244
 3105  LAT   Au 3645   1.836   0.000   2.244
 3106  LAT   Au 3646   2.040   0.000   2.040
 3107  LAT   Au 3647   2.244   0.204   2.040
 3108  LAT   Au 3648   2.040   0.204   2.244
 3109  LAT   Au 3649   2.244   0.000   2.244
 3110  LAT   Au 3650   2.448   0.000   2.040
 3111  LAT   Au 3651   2.652   0.204   2.040
 3112  LAT   Au 3652   2.448   0.204   2.244
 3113  LAT   Au 3653   2.652   0.000   2.244
 3114  LAT   Au 3654   2.856   0.000   2.040
 3115  LAT   Au 3655   3.060   0.204   2.040
 3116  LAT   Au 3656   2.856   0.204   2.244
 3117  LAT   Au 3657   3.060   0.000   2.244
 3118  LAT   Au 3658   3.264   0.000   2.040
 3119  LAT   Au 3659   3.468   0.204   2.040
 3120  LAT   Au 3660   3.264   0.204   2.244
 3121  LAT   Au 3661   3.468   0.000   2.244
 3122  LAT   Au 3662   3.672   0.000   2.040
 3123  LAT   Au 3663   3.876   0.204   2.040
 3124  LAT   Au 3664   3.672   0.204   2.244
 3125  LAT   Au 3665   3.876   0.000   2.244
 3126  LAT   Au 3666   4.080   0.000   2.040
 3127  LAT   Au 3667   4.284   0.204   2.040
 3128  LAT   Au 3668   4.080   0.204   2.244
 3129  LAT   Au 3669   4.284   0.000   2.244
 3130  LAT   Au 3670   4.488   0.000   2.040
 3131  LAT   Au 3671   4.692   0.204   2.040
 3132  LAT   Au 3672   4.488   0.204   2.244
 3133  LAT   Au 3673   4.692   0.000   2.244
 3134  LAT   Au 3674   4.896   0.000   2.040
 3135  LAT   Au 3675   5.100   0.204   2.040
 3136  LAT   Au 3676   4.896   0.204   2.244
 3137  LAT   Au 3677   5.100   0.000   2.244
 3138  LAT   Au 3678   5.304   0.000   2.040
 3139  LAT   Au 3679   5.508   0.204   2.040
 3140  LAT   Au 3680   5.304   0.204   2.244
 3141  LAT   Au 3681   5.508   0.000   2.244
 3142  LAT   Au 3682   5.712   0.000   2.040
 3143  LAT   Au 3683   5.916   0.204   2.040
 3144  LAT   Au 3684   5.712   0.204   2.244
 3145  LAT   Au 3685   5.916   0.000   2.244
 3146  LAT   Au 3686   6.120   0.000   2.040
 3147  LAT   Au 3687   6.324   0.204   2.040
 3148  LAT   Au 3688   6.120   0.204   2.244
 3149  LAT   Au 3689   6.324   0.000   2.244
 3150  LAT   Au 3690   6.528   0.000   2.040
 3151  LAT   Au 3691   6.732   0.204   2.040
 3152  LAT   Au 3692   6.528   0.204   2.244
 3153  LAT   Au 3693   6.732   0.000   2.244
 3154  LAT   Au 3694   6.936   0.000   2.040
 3155  LAT   Au 3695   7.140   0.204   2.040
 3156  LAT   Au 3696   6.936   0.204   2.244
 3157  LAT   Au 3697   7.140   0.000   2.244
 3158  LAT   Au 3698   0.000   0.408   2.040
 3159  LAT   Au 3699   0.204   0.612   2.040
 3160  LAT   Au 3700   0.000   0.612   2.244
 3161  LAT   Au 3701   0.204   0.408   2.244
 3162  LAT   Au 3702   0.408   0.408   2.040
 3163  LAT   Au 3703   0.612   0.612   2.040
 3164  LAT   Au 3704   0.408   0.612   2.244
 3165  LAT   Au 3705   0.612   0.408   2.244
 3166  LAT   Au 3706   0.816   0.408   2.040
 3167  LAT   Au 3707   1.020   0.612   2.040
 3168  LAT   Au 3708   0.816   0.612   2.244
 3169  LAT   Au 3709   1.020   0.408   2.244
 3170  LAT   Au 3710   1.224   0.408   2.040
 3171  LAT   Au 3711   1.428   0.612   2.040
 3172  LAT   Au 3712   1.224   0.612   2.244
 3173  LAT   Au 3713   1.428   0.408   2.244
 3174  LAT   Au 3714   1.632   0.408   2.040
 3175  LAT   Au 3715   1.836   0.612   2.040
 3176  LAT   Au 3716   1.632   0.612   2.244
 3177  LAT   Au 3717   1.836   0.408   2.244
 3178  LAT   Au 3718   2.040   0.408   2.040
 3179  LAT   Au 3719   2.244   0.612   2.040
 3180  LAT   Au 3720   2.040   0.612   2.244
 3181  LAT   Au 3721   2.244   0.408   2.244
 3182  LAT   Au 3722   2.448   0.408   2.040
 3183  LAT   Au 3723   2.652   0.612   2.040
 3184  LAT   Au 3724   2.448   0.612   2.244
 3185  LAT   Au 3725   2.652   0.408   2.244
 3186  LAT   Au 3726   2.856   0.408   2.040
 3187  LAT   Au 3727   3.060   0.612   2.040
 3188  LAT   Au 3728   2.856   0.612   2.244
 3189  LAT   Au 3729   3.060   0.408   2.244
 3190  LAT   Au 3730   3.264   0.408   2.040
 3191  LAT   Au 3731   3.264   0.612   2.244
 3192  LAT   Au 3732   3.468   0.408   2.244
 3193  LAT   Au 3733   3.672   0.408   2.040
 3194  LAT   Au 3734   3.876   0.408   2.244
 3195  LAT   Au 3735   4.080   0.408   2.040
 3196  LAT   Au 3736   4.284   0.612   2.040
 3197  LAT   Au 3737   4.080   0.612   2.244
 3198  LAT   Au 3738   4.284   0.408   2.244
 3199  LAT   Au 3739   4.488   0.408   2.040
 3200  LAT   Au 3740   4.692   0.612   2.040
 3201  LAT   Au 3741   4.488   0.612   2.244
 3202  LAT   Au 3742   4.692   0.408   2.244
 3203  LAT   Au 3743   4.896   0.408   2.040
 3204  LAT   Au 3744   5.100   0.612   2.040
 3205  LAT   Au 3745   4.896   0.612   2.244
 3206  LAT   Au 3746   5.100   0.408   2.244
 3207  LAT   Au 3747   5.304   0.408   2.040
 3208  LAT   Au 3748   5.508   0.612   2.040
 3209  LAT   Au 3749   5.304   0.612   2.244
 3210  LAT   Au 3750   5.508   0.408   2.244
 3211  LAT   Au 3751   5.712   0.408   2.040
 3212  LAT   Au 3752   5.916   0.612   2.040
 3213  LAT   Au 3753   5.712   0.612   2.244
 3214  LAT   Au 3754   5.916   0.408   2.244
 3215  LAT   Au 3755   6.120   0.408   2.040
 3216  LAT   Au 3756   6.324   0.612   2.040
 3217  LAT   Au 3757   6.120   0.612   2.244
 3218  LAT   Au 3758   6.324   0.408   2.244
 3219  LAT   Au 3759   6.528   0.408   2.040
 3220  LAT   Au 3760   6.732   0.612   2.040
 3221  LAT   Au 3761   6.528   0.612   2.244
 3222  LAT   Au 3762   6.732   0.408   2.244
 3223  LAT   Au 3763   6.936   0.408   2.040
 3224  LAT   Au 3764   7.140   0.612   2.040
 3225  LAT   Au 3765   6.936   0.612   2.244
 3226  LAT   Au 3766   7.140   0.408   2.244
 3227  LAT   Au 3767   0.000   0.816   2.040
 3228  LAT   Au 3768   0.204   1.020   2.040
 3229  LAT   Au 3769   0.000   1.020   2.244
 3230  LAT   Au 3770   0.204   0.816   2.244
 3231  LAT   Au 3771   0.408   0.816   2.040
 3232  LAT   Au 3772   0.612   1.020   2.040
 3233  LAT   Au 3773   0.408   1.020   2.244
 3234  LAT   Au 3774   0.612   0.816   2.244
 3235  LAT   Au 3775   0.816   0.816   2.040
 3236  LAT   Au 3776   1.020   1.020   2.040
 3237  LAT   Au 3777   0.816   1.020   2.244
 3238  LAT   Au 3778   1.020   0.816   2.244
 3239  LAT   Au 3779   1.224   0.816   2.040
 3240  LAT   Au 3780   1.428   1.020   2.040
 3241  LAT   Au 3781   1.224   1.020   2.244
 3242  LAT   Au 3782   1.428   0.816   2.244
 3243  LAT   Au 3783   1.632   0.816   2.040
 3244  LAT   Au 3784   1.836   1.020   2.040
 3245  LAT   Au 3785   1.632   1.020   2.244
 3246  LAT   Au 3786   1.836   0.816   2.244
 3247  LAT   Au 3787   2.040   0.816   2.040
 3248  LAT   Au 3788   2.040   1.020   2.244
 3249  LAT   Au 3789   2.244   0.816   2.244
 3250  LAT   Au 3790   2.448   0.816   2.040
 3251  LAT   Au 3791   4.896   0.816   2.040
 3252  LAT   Au 3792   5.100   0.816   2.244
 3253  LAT   Au 3793   5.304   0.816   2.040
 3254  LAT   Au 3794   5.508   1.020   2.040
 3255  LAT   Au 3795   5.304   1.020   2.244
 3256  LAT   Au 3796   5.508   0.816   2.244
 3257  LAT   Au 3797   5.712   0.816   2.040
 3258  LAT   Au 3798   5.916   1.020   2.040
 3259  LAT   Au 3799   5.712   1.020   2.244
 3260  LAT   Au 3800   5.916   0.816   2.244
 3261  LAT   Au 3801   6.120   0.816   2.040
 3262  LAT   Au 3802   6.324   1.020   2.040
 3263  LAT   Au 3803   6.120   1.020   2.244
 3264  LAT   Au 3804   6.324   0.816   2.244
 3265  LAT   Au 3805   6.528   0.816   2.040
 3266  LAT   Au 3806   6.732   1.020   2.040
 3267  LAT   Au 3807   6.528   1.020   2.244
 3268  LAT   Au 3808   6.732   0.816   2.244
 3269  LAT   Au 3809   6.936   0.816   2.040
 3270  LAT   Au 3810   7.140   1.020   2.040
 3271  LAT   Au 3811   6.936   1.020   2.244
 3272  LAT   Au 3812   7.140   0.816   2.244
 3273  LAT   Au 3813   0.000   1.224   2.040
 3274  LAT   Au 3814   0.204   1.428   2.040
 3275  LAT   Au 3815   0.000   1.428   2.244
 3276  LAT   Au 3816   0.204   1.224   2.244
 3277  LAT   Au 3817   0.408   1.224   2.040
 3278  LAT   Au 3818   0.612   1.428   2.040
 3279  LAT   Au 3819   0.408   1.428   2.244
 3280  LAT   Au 3820   0.612   1.224   2.244
 3281  LAT   Au 3821   0.816   1.224   2.040
 3282  LAT   Au 3822   1.020   1.428   2.040
 3283  LAT   Au 3823   0.816   1.428   2.244
 3284  LAT   Au 3824   1.020   1.224   2.244
 3285  LAT   Au 3825   1.224   1.224   2.040
 3286  LAT   Au 3826   1.428   1.428   2.040
 3287  LAT   Au 3827   1.224   1.428   2.244
 3288  LAT   Au 3828   1.428   1.224   2.244
 3289  LAT   Au 3829   1.632   1.224   2.040
 3290  LAT   Au 3830   5.508   1.224   2.244
 3291  LAT   Au 3831   5.712   1.224   2.040
 3292  LAT   Au 3832   5.916   1.428   2.040
 3293  LAT   Au 3833   5.712   1.428   2.244
 3294  LAT   Au 3834   5.916   1.224   2.244
 3295  LAT   Au 3835   6.120   1.224   2.040
 3296  LAT   Au 3836   6.324   1.428   2.040
 3297  LAT   Au 3837   6.120   1.428   2.244
 3298  LAT   Au 3838   6.324   1.224   2.244
 3299  LAT   Au 3839   6.528   1.224   2.040
 3300  LAT   Au 3840   6.732   1.428   2.040
 3301  LAT   Au 3841   6.528   1.428   2.244
 3302  LAT   Au 3842   6.732   1.224   2.244
 3303  LAT   Au 3843   6.936   1.224   2.040
 3304  LAT   Au 3844   7.140   1.428   2.040
 3305  LAT   Au 3845   6.936   1.428   2.244
 3306  LAT   Au 3846   7.140   1.224   2.244
 3307  LAT   Au 3847   0.000   1.632   2.040
 3308  LAT   Au 3848   0.204   1.836   2.040
 3309  LAT   Au 3849   0.000   1.836   2.244
 3310  LAT   Au 3850   0.204   1.632   2.244
 3311  LAT   Au 3851   0.408   1.632   2.040
 3312  LAT   Au 3852   0.612   1.836   2.040
 3313  LAT   Au 3853   0.408   1.836   2.244
 3314  LAT   Au 3854   0.612   1.632   2.244
 3315  LAT   Au 3855   0.816   1.632   2.040
 3316  LAT   Au 3856   1.020   1.836   2.040
 3317  LAT   Au 3857   0.816   1.836   2.244
 3318  LAT   Au 3858   1.020   1.632   2.244
 3319  LAT   Au 3859   1.224   1.632   2.040
 3320  LAT   Au 3860   5.916   1.632   2.244
 3321  LAT   Au 3861   6.120   1.632   2.040
 3322  LAT   Au 3862   6.324   1.836   2.040
 3323  LAT   Au 3863   6.120   1.836   2.244
 3324  LAT   Au 3864   6.324   1.632   2.244
 3325  LAT   Au 3865   6.528   1.632   2.040
 3326  LAT   Au 3866   6.732   1.836   2.040
 3327  LAT   Au 3867   6.528   1.836   2.244
 3328  LAT   Au 3868   6.732   1.632   2.244
 3329  LAT   Au 3869   6.936   1.632   2.040
 3330  LAT   Au 3870   7.140   1.836   2.040
 3331  LAT   Au 3871   6.936   1.836   2.244
 3332  LAT   Au 3872   7.140   1.632   2.244
 3333  LAT   Au 3873   0.000   2.040   2.040
 3334  LAT   Au 3874   0.204   2.244   2.040
 3335  LAT   Au 3875   0.000   2.244   2.244
 3336  LAT   Au 3876   0.204   2.040   2.244
 3337  LAT   Au 3877   0.408   2.040   2.040
 3338  LAT   Au 3878   0.612   2.244   2.040
 3339  LAT   Au 3879   0.408   2.244   2.244
 3340  LAT   Au 3880   0.612   2.040   2.244
 3341  LAT   Au 3881   0.816   2.040   2.040
 3342  LAT   Au 3882   0.816   2.244   2.244
 3343  LAT   Au 3883   1.020   2.040   2.244
 3344  LAT   Au 3884   6.324   2.244   2.040
 3345  LAT   Au 3885   6.324   2.040   2.244
 3346  LAT   Au 3886   6.528   2.040   2.040
 3347  LAT   Au 3887   6.732   2.244   2.040
 3348  LAT   Au 3888   6.528   2.244   2.244
 3349  LAT   Au 3889   6.732   2.040   2.244
 3350  LAT   Au 3890   6.936   2.040   2.040
 3351  LAT   Au 3891   7.140   2.244   2.040
 3352  LAT   Au 3892   6.936   2.244   2.244
 3353  LAT   Au 3893   7.140   2.040   2.244
 3354  LAT   Au 3894   0.000   2.448   2.040
 3355  LAT   Au 3895   0.204   2.652   2.040
 3356  LAT   Au 3896   0.000   2.652   2.244
 3357  LAT   Au 3897   0.204   2.448   2.244
 3358  LAT   Au 3898   0.408   2.448   2.040
 3359  LAT   Au 3899   0.612   2.652   2.040
 3360  LAT   Au 3900   0.408   2.652   2.244
 3361  LAT   Au 3901   0.612   2.448   2.244
 3362  LAT   Au 3902   0.816   2.448   2.040
 3363  LAT   Au 3903   6.528   2.448   2.040
 3364  LAT   Au 3904   6.732   2.652   2.040
 3365  LAT   Au 3905   6.528   2.652   2.244
 3366  LAT   Au 3906   6.732   2.448   2.244
 3367  LAT   Au 3907   6.936   2.448   2.040
 3368  LAT   Au 3908   7.140   2.652   2.040
 3369  LAT   Au 3909   6.936   2.652   2.244
 3370  LAT   Au 3910   7.140   2.448   2.244
 3371  LAT   Au 3911   0.000   2.856   2.040
 3372  LAT   Au 3912   0.204   3.060   2.040
 3373  LAT   Au 3913   0.000   3.060   2.244
 3374  LAT   Au 3914   0.204   2.856   2.244
 3375  LAT   Au 3915   0.408   2.856   2.040
 3376  LAT   Au 3916   0.612   3.060   2.040
 3377  LAT   Au 3917   0.408   3.060   2.244
 3378  LAT   Au 3918   0.612   2.856   2.244
 3379  LAT   Au 3919   6.528   2.856   2.040
 3380  LAT   Au 3920   6.732   3.060   2.040
 3381  LAT   Au 3921   6.732   2.856   2.244
 3382  LAT   Au 3922   6.936   2.856   2.040
 3383  LAT   Au 3923   7.140   3.060   2.040
 3384  LAT   Au 3924   6.936   3.060   2.244
 3385  LAT   Au 3925   7.140   2.856   2.244
 3386  LAT   Au 3926   0.000   3.264   2.040
 3387  LAT   Au 3927   0.204   3.468   2.040
 3388  LAT   Au 3928   0.000   3.468   2.244
 3389  LAT   Au 3929   0.204   3.264   2.244
 3390  LAT   Au 3930   0.408   3.264   2.040
 3391  LAT   Au 3931   0.408   3.468   2.244
 3392  LAT   Au 3932   0.612   3.264   2.244
 3393  LAT   Au 3933   6.732   3.468   2.040
 3394  LAT   Au 3934   6.732   3.264   2.244
 3395  LAT   Au 3935   6.936   3.264   2.040
 3396  LAT   Au 3936   7.140   3.468   2.040
 3397  LAT   Au 3937   6.936   3.468   2.244
 3398  LAT   Au 3938   7.140   3.264   2.244
 3399  LAT   Au 3939   0.000   3.672   2.040
 3400  LAT   Au 3940   0.204   3.876   2.040
 3401  LAT   Au 3941   0.000   3.876   2.244
 3402  LAT   Au 3942   0.204   3.672   2.244
 3403  LAT   Au 3943   0.408   3.672   2.040
 3404  LAT   Au 3944   0.408   3.876   2.244
 3405  LAT   Au 3945   6.732   3.876   2.040
 3406  LAT   Au 3946   6.732   3.672   2.244
 3407  LAT   Au 3947   6.936   3.672   2.040
 3408  LAT   Au 3948   7.140   3.876   2.040
 3409  LAT   Au 3949   6.936   3.876   2.244
 3410  LAT   Au 3950   7.140   3.672   2.244
 3411  LAT   Au 3951   0.000   4.080   2.040
 3412  LAT   Au 3952   0.204   4.284   2.040
 3413  LAT   Au 3953   0.000   4.284   2.244
 3414  LAT   Au 3954   0.204   4.080   2.244
 3415  LAT   Au 3955   0.408   4.080   2.040
 3416  LAT   Au 3956   0.612   4.284   2.040
 3417  LAT   Au 3957   0.408   4.284   2.244
 3418  LAT   Au 3958   0.612   4.080   2.244
 3419  LAT   Au 3959   6.732   4.284   2.040
 3420  LAT   Au 3960   6.528   4.284   2.244
 3421  LAT   Au 3961   6.732   4.080   2.244
 3422  LAT   Au 3962   6.936   4.080   2.040
 3423  LAT   Au 3963   7.140   4.284   2.040
 3424  LAT   Au 3964   6.936   4.284   2.244
 3425  LAT   Au 3965   7.140   4.080   2.244
 3426  LAT   Au 3966   0.000   4.488   2.040
 3427  LAT   Au 3967   0.204   4.692   2.040
 3428  LAT   Au 3968   0.000   4.692   2.244
 3429  LAT   Au 3969   0.204   4.488   2.244
 3430  LAT   Au 3970   0.408   4.488   2.040
 3431  LAT   Au 3971   0.612   4.692   2.040
 3432  LAT   Au 3972   0.408   4.692   2.244
 3433  LAT   Au 3973   0.612   4.488   2.244
 3434  LAT   Au 3974   6.528   4.488   2.040
 3435  LAT   Au 3975   6.732   4.692   2.040
 3436  LAT   Au 3976   6.528   4.692   2.244
 3437  LAT   Au 3977   6.732   4.488   2.244
 3438  LAT   Au 3978   6.936   4.488   2.040
 3439  LAT   Au 3979   7.140   4.692   2.040
 3440  LAT   Au 3980   6.936   4.692   2.244
 3441  LAT   Au 3981   7.140   4.488   2.244
 3442  LAT   Au 3982   0.000   4.896   2.040
 3443  LAT   Au 3983   0.204   5.100   2.040
 3444  LAT   Au 3984   0.000   5.100   2.244
 3445  LAT   Au 3985   0.204   4.896   2.244
 3446  LAT   Au 3986   0.408   4.896   2.040
 3447  LAT   Au 3987   0.612   5.100   2.040
 3448  LAT   Au 3988   0.408   5.100   2.244
 3449  LAT   Au 3989   0.612   4.896   2.244
 3450  LAT   Au 3990   0.816   4.896   2.040
 3451  LAT   Au 3991   0.816   5.100   2.244
 3452  LAT   Au 3992   6.324   5.100   2.040
 3453  LAT   Au 3993   6.324   4.896   2.244
 3454  LAT   Au 3994   6.528   4.896   2.040
 3455  LAT   Au 3995   6.732   5.100   2.040
 3456  LAT   Au 3996   6.528   5.100   2.244
 3457  LAT   Au 3997   6.732   4.896   2.244
 3458  LAT   Au 3998   6.936   4.896   2.040
 3459  LAT   Au 3999   7.140   5.100   2.040
 3460  LAT   Au 4000   6.936   5.100   2.244
 3461  LAT   Au 4001   7.140   4.896   2.244
 3462  LAT   Au 4002   0.000   5.304   2.040
 3463  LAT   Au 4003   0.204   5.508   2.040
 3464  LAT   Au 4004   0.000   5.508   2.244
 3465  LAT   Au 4005   0.204   5.304   2.244
 3466  LAT   Au 4006   0.408   5.304   2.040
 3467  LAT   Au 4007   0.612   5.508   2.040
 3468  LAT   Au 4008   0.408   5.508   2.244
 3469  LAT   Au 4009   0.612   5.304   2.244
 3470  LAT   Au 4010   0.816   5.304   2.040
 3471  LAT   Au 4011   1.020   5.508   2.040
 3472  LAT   Au 4012   0.816   5.508   2.244
 3473  LAT   Au 4013   1.020   5.304   2.244
 3474  LAT   Au 4014   1.224   5.508   2.244
 3475  LAT   Au 4015   5.916   5.508   2.040
 3476  LAT   Au 4016   6.120   5.304   2.040
 3477  LAT   Au 4017   6.324   5.508   2.040
 3478  LAT   Au 4018   6.120   5.508   2.244
 3479  LAT   Au 4019   6.324   5.304   2.244
 3480  LAT   Au 4020   6.528   5.304   2.040
 3481  LAT   Au 4021   6.732   5.508   2.040
 3482  LAT   Au 4022   6.528   5.508   2.244
 3483  LAT   Au 4023   6.732   5.304   2.244
 3484  LAT   Au 4024   6.936   5.304   2.040
 3485  LAT   Au 4025   7.140   5.508   2.040
 3486  LAT   Au 4026   6.936   5.508   2.244
 3487  LAT   Au 4027   7.140   5.304   2.244
 3488  LAT   Au 4028   0.000   5.712   2.040
 3489  LAT   Au 4029   0.204   5.916   2.040
 3490  LAT   Au 4030   0.000   5.916   2.244
 3491  LAT   Au 4031   0.204   5.712   2.244
 3492  LAT   Au 4032   0.408   5.712   2.040
 3493  LAT   Au 4033   0.612   5.916   2.040
 3494  LAT   Au 4034   0.408   5.916   2.244
 3495  LAT   Au 4035   0.612   5.712   2.244
 3496  LAT   Au 4036   0.816   5.712   2.040
 3497  LAT   Au 4037   1.020   5.916   2.040
 3498  LAT   Au 4038   0.816   5.916   2.244
 3499  LAT   Au 4039   1.020   5.712   2.244
 3500  LAT   Au 4040   1.224   5.712   2.040
 3501  LAT   Au 4041   1.428   5.916   2.040
 3502  LAT   Au 4042   1.224   5.916   2.244
 3503  LAT   Au 4043   1.428   5.712   2.244
 3504  LAT   Au 4044   1.632   5.916   2.244
 3505  LAT   Au 4045   5.508   5.916   2.040
 3506  LAT   Au 4046   5.916   5.916   2.040
 3507  LAT   Au 4047   5.712   5.916   2.244
 3508  LAT   Au 4048   5.916   5.712   2.244
 3509  LAT   Au 4049   6.120   5.712   2.040
 3510  LAT   Au 4050   6.324   5.916   2.040
 3511  LAT   Au 4051   6.120   5.916   2.244
 3512  LAT   Au 4052   6.324   5.712   2.244
 3513  LAT   Au 4053   6.528   5.712   2.040
 3514  LAT   Au 4054   6.732   5.916   2.040
 3515  LAT   Au 4055   6.528   5.916   2.244
 3516  LAT   Au 4056   6.732   5.712   2.244
 3517  LAT   Au 4057   6.936   5.712   2.040
 3518  LAT   Au 4058   7.140   5.916   2.040
 3519  LAT   Au 4059   6.936   5.916   2.244
 3520  LAT   Au 4060   7.140   5.712   2.244
 3521  LAT   Au 4061   0.000   6.120   2.040
 3522  LAT   Au 4062   0.204   6.324   2.040
 3523  LAT   Au 4063   0.000   6.324   2.244
 3524  LAT   Au 4064   0.204   6.120   2.244
 3525  LAT   Au 4065   0.408   6.120   2.040
 3526  LAT   Au 4066   0.612   6.324   2.040
 3527  LAT   Au 4067   0.408   6.324   2.244
 3528  LAT   Au 4068   0.612   6.120   2.244
 3529  LAT   Au 4069   0.816   6.120   2.040
 3530  LAT   Au 4070   1.020   6.324   2.040
 3531  LAT   Au 4071   0.816   6.324   2.244
 3532  LAT   Au 4072   1.020   6.120   2.244
 3533  LAT   Au 4073   1.224   6.120   2.040
 3534  LAT   Au 4074   1.428   6.324   2.040
 3535  LAT   Au 4075   1.224   6.324   2.244
 3536  LAT   Au 4076   1.428   6.120   2.244
 3537  LAT   Au 4077   1.632   6.120   2.040
 3538  LAT   Au 4078   1.836   6.324   2.040
 3539  LAT   Au 4079   1.632   6.324   2.244
 3540  LAT   Au 4080   1.836   6.120   2.244
 3541  LAT   Au 4081   2.244   6.324   2.040
 3542  LAT   Au 4082   2.040   6.324   2.244
 3543  LAT   Au 4083   5.100   6.324   2.040
 3544  LAT   Au 4084   4.896   6.324   2.244
 3545  LAT   Au 4085   5.304   6.120   2.040
 3546  LAT   Au 4086   5.508   6.324   2.040
 3547  LAT   Au 4087   5.304   6.324   2.244
 3548  LAT   Au 4088   5.508   6.120   2.244
 3549  LAT   Au 4089   5.712   6.120   2.040
 3550  LAT   Au 4090   5.916   6.324   2.040
 3551  LAT   Au 4091   5.712   6.324   2.244
 3552  LAT   Au 4092   5.916   6.120   2.244
 3553  LAT   Au 4093   6.120   6.120   2.040
 3554  LAT   Au 4094   6.324   6.324   2.040
 3555  LAT   Au 4095   6.120   6.324   2.244
 3556  LAT   Au 4096   6.324   6.120   2.244
 3557  LAT   Au 4097   6.528   6.120   2.040
 3558  LAT   Au 4098   6.732   6.324   2.040
 3559  LAT   Au 4099   6.528   6.324   2.244
 3560  LAT   Au 4100   6.732   6.120   2.244
 3561  LAT   Au 4101   6.936   6.120   2.040
 3562  LAT   Au 4102   7.140   6.324   2.040
 3563  LAT   Au 4103   6.936   6.324   2.244
 3564  LAT   Au 4104   7.140   6.120   2.244
 3565  LAT   Au 4105   0.000   6.528   2.040
 3566  LAT   Au 4106   0.204   6.732   2.040
 3567  LAT   Au 4107   0.000   6.732   2.244
 3568  LAT   Au 4108   0.204   6.528   2.244
 3569  LAT   Au 4109   0.408   6.528   2.040
 3570  LAT   Au 4110   0.612   6.732   2.040
 3571  LAT   Au 4111   0.408   6.732   2.244
 3572  LAT   Au 4112   0.612   6.528   2.244
 3573  LAT   Au 4113   0.816   6.528   2.040
 3574  LAT   Au 4114   1.020   6.732   2.040
 3575  LAT   Au 4115   0.816   6.732   2.244
 3576  LAT   Au 4116   1.020   6.528   2.244
 3577  LAT   Au 4117   1.224   6.528   2.040
 3578  LAT   Au 4118   1.428   6.732   2.040
 3579  LAT   Au 4119   1.224   6.732   2.244
 3580  LAT   Au 4120   1.428   6.528   2.244
 3581  LAT   Au 4121   1.632   6.528   2.040
 3582  LAT   Au 4122   1.836   6.732   2.040
 3583  LAT   Au 4123   1.632   6.732   2.244
 3584  LAT   Au 4124   1.836   6.528   2.244
 3585  LAT   Au 4125   2.040   6.528   2.040
 3586  LAT   Au 4126   2.244   6.732   2.040
 3587  LAT   Au 4127   2.040   6.732   2.244
 3588  LAT   Au 4128   2.244   6.528   2.244
 3589  LAT   Au 4129   2.448   6.528   2.040
 3590  LAT   Au 4130   2.652   6.732   2.040
 3591  LAT   Au 4131   2.448   6.732   2.244
 3592  LAT   Au 4132   2.652   6.528   2.244
 3593  LAT   Au 4133   2.856   6.528   2.040
 3594  LAT   Au 4134   3.060   6.732   2.040
 3595  LAT   Au 4135   2.856   6.732   2.244
 3596  LAT   Au 4136   3.468   6.732   2.040
 3597  LAT   Au 4137   3.264   6.732   2.244
 3598  LAT   Au 4138   3.876   6.732   2.040
 3599  LAT   Au 4139   3.672   6.732   2.244
 3600  LAT   Au 4140   4.284   6.732   2.040
 3601  LAT   Au 4141   4.080   6.732   2.244
 3602  LAT   Au 4142   4.284   6.528   2.244
 3603  LAT   Au 4143   4.488   6.528   2.040
 3604  LAT   Au 4144   4.692   6.732   2.040
 3605  LAT   Au 4145   4.488   6.732   2.244
 3606  LAT   Au 4146   4.692   6.528   2.244
 3607  LAT   Au 4147   4.896   6.528   2.040
 3608  LAT   Au 4148   5.100   6.732   2.040
 3609  LAT   Au 4149   4.896   6.732   2.244
 3610  LAT   Au 4150   5.100   6.528   2.244
 3611  LAT   Au 4151   5.304   6.528   2.040
 3612  LAT   Au 4152   5.508   6.732   2.040
 3613  LAT   Au 4153   5.304   6.732   2.244
 3614  LAT   Au 4154   5.508   6.528   2.244
 3615  LAT   Au 4155   5.712   6.528   2.040
 3616  LAT   Au 4156   5.916   6.732   2.040
 3617  LAT   Au 4157   5.712   6.732   2.244
 3618  LAT   Au 4158   5.916   6.528   2.244
 3619  LAT   Au 4159   6.120   6.528   2.040
 3620  LAT   Au 4160   6.324   6.732   2.040
 3621  LAT   Au 4161   6.120   6.732   2.244
 3622  LAT   Au 4162   6.324   6.528   2.244
 3623  LAT   Au 4163   6.528   6.528   2.040
 3624  LAT   Au 4164   6.732   6.732   2.040
 3625  LAT   Au 4165   6.528   6.732   2.244
 3626  LAT   Au 4166   6.732   6.528   2.244
 3627  LAT   Au 4167   6.936   6.528   2.040
 3628  LAT   Au 4168   7.140   6.732   2.040
 3629  LAT   Au 4169   6.936   6.732   2.244
 3630  LAT   Au 4170   7.140   6.528   2.244
 3631  LAT   Au 4171   0.000   6.936   2.040
 3632  LAT   Au 4172   0.204   7.140   2.040
 3633  LAT   Au 4173   0.000   7.140   2.244
 3634  LAT   Au 4174   0.204   6.936   2.244
 3635  LAT   Au 4175   0.408   6.936   2.040
 3636  LAT   Au 4176   0.612   7.140   2.040
 3637  LAT   Au 4177   0.408   7.140   2.244
 3638  LAT   Au 4178   0.612   6.936   2.244
 3639  LAT   Au 4179   0.816   6.936   2.040
 3640  LAT   Au 4180   1.020   7.140   2.040
 3641  LAT   Au 4181   0.816   7.140   2.244
 3642  LAT   Au 4182   1.020   6.936   2.244
 3643  LAT   Au 4183   1.224   6.936   2.040
 3644  LAT   Au 4184   1.428   7.140   2.040
 3645  LAT   Au 4185   1.224   7.140   2.244
 3646  LAT   Au 4186   1.428   6.936   2.244
 3647  LAT   Au 4187   1.632   6.936   2.040
 3648  LAT   Au 4188   1.836   7.140   2.040
 3649  LAT   Au 4189   1.632   7.140   2.244
 3650  LAT   Au 4190   1.836   6.936   2.244
 3651  LAT   Au 4191   2.040   6.936   2.040
 3652  LAT   Au 4192   2.244   7.140   2.040
 3653  LAT   Au 4193   2.040   7.140   2.244
 3654  LAT   Au 4194   2.244   6.936   2.244
 3655  LAT   Au 4195   2.448   6.936   2.040
 3656  LAT   Au 4196   2.652   7.140   2.040
 3657  LAT   Au 4197   2.448   7.140   2.244
 3658  LAT   Au 4198   2.652   6.936   2.244
 3659  LAT   Au 4199   2.856   6.936   2.040
 3660  LAT   Au 4200   3.060   7.140   2.040
 3661  LAT   Au 4201   2.856   7.140   2.244
 3662  LAT   Au 4202   3.060   6.936   2.244
 3663  LAT   Au 4203   3.264   6.936   2.040
 3664  LAT   Au 4204   3.468   7.140   2.040
 3665  LAT   Au 4205   3.264   7.140   2.244
 3666  LAT   Au 4206   3.468   6.936   2.244
 3667  LAT   Au 4207   3.672   6.936   2.040
 3668  LAT   Au 4208   3.876   7.140   2.040
 3669  LAT   Au 4209   3.672   7.140   2.244
 3670  LAT   Au 4210   3.876   6.936   2.244
 3671  LAT   Au 4211   4.080   6.936   2.040
 3672  LAT   Au 4212   4.284   7.140   2.040
 3673  LAT   Au 4213   4.080   7.140   2.244
 3674  LAT   Au 4214   4.284   6.936   2.244
 3675  LAT   Au 4215   4.488   6.936   2.040
 3676  LAT   Au 4216   4.692   7.140   2.040
 3677  LAT   Au 4217   4.488   7.140   2.244
 3678  LAT   Au 4218   4.692   6.936   2.244
 3679  LAT   Au 4219   4.896   6.936   2.040
 3680  LAT   Au 4220   5.100   7.140   2.040
 3681  LAT   Au 4221   4.896   7.140   2.244
 3682  LAT   Au 4222   5.100   6.936   2.244
 3683  LAT   Au 4223   5.304   6.936   2.040
 3684  LAT   Au 4224   5.508   7.140   2.040
 3685  LAT   Au 4225   5.304   7.140   2.244
 3686  LAT   Au 4226   5.508   6.936   2.244
 3687  LAT   Au 4227   5.712   6.936   2.040
 3688  LAT   Au 4228   5.916   7.140   2.040
 3689  LAT   Au 4229   5.712   7.140   2.244
 3690  LAT   Au 4230   5.916   6.936   2.244
 3691  LAT   Au 4231   6.120   6.936   2.040
 3692  LAT   Au 4232   6.324   7.140   2.040
 3693  LAT   Au 4233   6.120   7.140   2.244
 3694  LAT   Au 4234   6.324   6.936   2.244
 3695  LAT   Au 4235   6.528   6.936   2.040
 3696  LAT   Au 4236   6.732   7.140   2.040
 3697  LAT   Au 4237   6.528   7.140   2.244
 3698  LAT   Au 4238   6.732   6.936   2.244
 3699  LAT   Au 4239   6.936   6.936   2.040
 3700  LAT   Au 4240   7.140   7.140   2.040
 3701  LAT   Au 4241   6.936   7.140   2.244
 3702  LAT   Au 4242   7.140   6.936   2.244
 3703  LAT   Au 4243   0.000   0.000   2.448
 3704  LAT   Au 4244   0.204   0.204   2.448
 3705  LAT   Au 4245   0.000   0.204   2.652
 3706  LAT   Au 4246   0.204   0.000   2.652
 3707  LAT   Au 4247   0.408   0.000   2.448
 3708  LAT   Au 4248   0.612   0.204   2.448
 3709  LAT   Au 4249   0.408   0.204   2.652
 3710  LAT   Au 4250   0.612   0.000   2.652
 3711  LAT   Au 4251   0.816   0.000   2.448
 3712  LAT   Au 4252   1.020   0.204   2.448
 3713  LAT   Au 4253   0.816   0.204   2.652
 3714  LAT   Au 4254   1.020   0.000   2.652
 3715  LAT   Au 4255   1.224   0.000   2.448
 3716  LAT   Au 4256   1.428   0.204   2.448
 3717  LAT   Au 4257   1.224   0.204   2.652
 3718  LAT   Au 4258   1.428   0.000   2.652
 3719  LAT   Au 4259   1.632   0.000   2.448
 3720  LAT   Au 4260   1.836   0.204   2.448
 3721  LAT   Au 4261   1.632   0.204   2.652
 3722  LAT   Au 4262   1.836   0.000   2.652
 3723  LAT   Au 4263   2.040   0.000   2.448
 3724  LAT   Au 4264   2.244   0.204   2.448
 3725  LAT   Au 4265   2.040   0.204   2.652
 3726  LAT   Au 4266   2.244   0.000   2.652
 3727  LAT   Au 4267   2.448   0.000   2.448
 3728  LAT   Au 4268   2.652   0.204   2.448
 3729  LAT   Au 4269   2.448   0.204   2.652
 3730  LAT   Au 4270   2.652   0.000   2.652
 3731  LAT   Au 4271   2.856   0.000   2.448
 3732  LAT   Au 4272   3.060   0.204   2.448
 3733  LAT   Au 4273   2.856   0.204   2.652
 3734  LAT   Au 4274   3.060   0.000   2.652
 3735  LAT   Au 4275   3.264   0.000   2.448
 3736  LAT   Au 4276   3.468   0.204   2.448
 3737  LAT   Au 4277   3.264   0.204   2.652
 3738  LAT   Au 4278   3.468   0.000   2.652
 3739  LAT   Au 4279   3.672   0.000   2.448
 3740  LAT   Au 4280   3.876   0.204   2.448
 3741  LAT   Au 4281   3.672   0.204   2.652
 3742  LAT   Au 4282   3.876   0.000   2.652
 3743  LAT   Au 4283   4.080   0.000   2.448
 3744  LAT   Au 4284   4.284   0.204   2.448
 3745  LAT   Au 4285   4.080   0.204   2.652
 3746  LAT   Au 4286   4.284   0.000   2.652
 3747  LAT   Au 4287   4.488   0.000   2.448
 3748  LAT   Au 4288   4.692   0.204   2.448
 3749  LAT   Au 4289   4.488   0.204   2.652
 3750  LAT   Au 4290   4.692   0.000   2.652
 3751  LAT   Au 4291   4.896   0.000   2.448
 3752  LAT   Au 4292   5.100   0.204   2.448
 3753  LAT   Au 4293   4.896   0.204   2.652
 3754  LAT   Au 4294   5.100   0.000   2.652
 3755  LAT   Au 4295   5.304   0.000   2.448
 3756  LAT   Au 4296   5.508   0.204   2.448
 3757  LAT   Au 4297   5.304   0.204   2.652
 3758  LAT   Au 4298   5.508   0.000   2.652
 3759  LAT   Au 4299   5.712   0.000   2.448
 3760  LAT   Au 4300   5.916   0.204   2.448
 3761  LAT   Au 4301   5.712   0.204   2.652
 3762  LAT   Au 4302   5.916   0.000   2.652
 3763  LAT   Au 4303   6.120   0.000   2.448
 3764  LAT   Au 4304   6.324   0.204   2.448
 3765  LAT   Au 4305   6.120   0.204   2.652
 3766  LAT   Au 4306   6.324   0.000   2.652
 3767  LAT   Au 4307   6.528   0.000   2.448
 3768  LAT   Au 4308   6.732   0.204   2.448
 3769  LAT   Au 4309   6.528   0.204   2.652
 3770  LAT   Au 4310   6.732   0.000   2.652
 3771  LAT   Au 4311   6.936   0.000   2.448
 3772  LAT   Au 4312   7.140   0.204   2.448
 3773  LAT   Au 4313   6.936   0.204   2.652
 3774  LAT   Au 4314   7.140   0.000   2.652
 3775  LAT   Au 4315   0.000   0.408   2.448
 3776  LAT   Au 4316   0.204   0.612   2.448
 3777  LAT   Au 4317   0.000   0.612   2.652
 3778  LAT   Au 4318   0.204   0.408   2.652
 3779  LAT   Au 4319   0.408   0.408   2.448
 3780  LAT   Au 4320   0.612   0.612   2.448
 3781  LAT   Au 4321   0.408   0.612   2.652
 3782  LAT   Au 4322   0.612   0.408   2.652
 3783  LAT   Au 4323   0.816   0.408   2.448
 3784  LAT   Au 4324   1.020   0.612   2.448
 3785  LAT   Au 4325   0.816   0.612   2.652
 3786  LAT   Au 4326   1.020   0.408   2.652
 3787  LAT   Au 4327   1.224   0.408   2.448
 3788  LAT   Au 4328   1.428   0.612   2.448
 3789  LAT   Au 4329   1.224   0.612   2.652
 3790  LAT   Au 4330   1.428   0.408   2.652
 3791  LAT   Au 4331   1.632   0.408   2.448
 3792  LAT   Au 4332   1.836   0.612   2.448
 3793  LAT   Au 4333   1.632   0.612   2.652
 3794  LAT   Au 4334   1.836   0.408   2.652
 3795  LAT   Au 4335   2.040   0.408   2.448
 3796  LAT   Au 4336   2.244   0.612   2.448
 3797  LAT   Au 4337   2.040   0.612   2.652
 3798  LAT   Au 4338   2.244   0.408   2.652
 3799  LAT   Au 4339   2.448   0.408   2.448
 3800  LAT   Au 4340   2.652   0.612   2.448
 3801  LAT   Au 4341   2.448   0.612   2.652
 3802  LAT   Au 4342   2.652   0.408   2.652
 3803  LAT   Au 4343   2.856   0.408   2.448
 3804  LAT   Au 4344   3.060   0.612   2.448
 3805  LAT   Au 4345   2.856   0.612   2.652
 3806  LAT   Au 4346   3.060   0.408   2.652
 3807  LAT   Au 4347   3.264   0.408   2.448
 3808  LAT   Au 4348   3.264   0.612   2.652
 3809  LAT   Au 4349   3.468   0.408   2.652
 3810  LAT   Au 4350   3.672   0.408   2.448
 3811  LAT   Au 4351   3.876   0.408   2.652
 3812  LAT   Au 4352   4.080   0.408   2.448
 3813  LAT   Au 4353   4.284   0.612   2.448
 3814  LAT   Au 4354   4.080   0.612   2.652
 3815  LAT   Au 4355   4.284   0.408   2.652
 3816  LAT   Au 4356   4.488   0.408   2.448
 3817  LAT   Au 4357   4.692   0.612   2.448
 3818  LAT   Au 4358   4.488   0.612   2.652
 3819  LAT   Au 4359   4.692   0.408   2.652
 3820  LAT   Au 4360   4.896   0.408   2.448
 3821  LAT   Au 4361   5.100   0.612   2.448
 3822  LAT   Au 4362   4.896   0.612   2.652
 3823  LAT   Au 4363   5.100   0.408   2.652
 3824  LAT   Au 4364   5.304   0.408   2.448
 3825  LAT   Au 4365   5.508   0.612   2.448
 3826  LAT   Au 4366   5.304   0.612   2.652
 3827  LAT   Au 4367   5.508   0.408   2.652
 3828  LAT   Au 4368   5.712   0.408   2.448
 3829  LAT   Au 4369   5.916   0.612   2.448
 3830  LAT   Au 4370   5.712   0.612   2.652
 3831  LAT   Au 4371   5.916   0.408   2.652
 3832  LAT   Au 4372   6.120   0.408   2.448
 3833  LAT   Au 4373   6.324   0.612   2.448
 3834  LAT   Au 4374   6.120   0.612   2.652
 3835  LAT   Au 4375   6.324   0.408   2.652
 3836  LAT   Au 4376   6.528   0.408   2.448
 3837  LAT   Au 4377   6.732   0.612   2.448
 3838  LAT   Au 4378   6.528   0.612   2.652
 3839  LAT   Au 4379   6.732   0.408   2.652
 3840  LAT   Au 4380   6.936   0.408   2.448
 3841  LAT   Au 4381   7.140   0.612   2.448
 3842  LAT   Au 4382   6.936   0.612   2.652
 3843  LAT   Au 4383   7.140   0.408   2.652
 3844  LAT   Au 4384   0.000   0.816   2.448
 3845  LAT   Au 4385   0.204   1.020   2.448
 3846  LAT   Au 4386   0.000   1.020   2.652
 3847  LAT   Au 4387   0.204   0.816   2.652
 3848  LAT   Au 4388   0.408   0.816   2.448
 3849  LAT   Au 4389   0.612   1.020   2.448
 3850  LAT   Au 4390   0.408   1.020   2.652
 3851  LAT   Au 4391   0.612   0.816   2.652
 3852  LAT   Au 4392   0.816   0.816   2.448
 3853  LAT   Au 4393   1.020   1.020   2.448
 3854  LAT   Au 4394   0.816   1.020   2.652
 3855  LAT   Au 4395   1.020   0.816   2.652
 3856  LAT   Au 4396   1.224   0.816   2.448
 3857  LAT   Au 4397   1.428   1.020   2.448
 3858  LAT   Au 4398   1.224   1.020   2.652
 3859  LAT   Au 4399   1.428   0.816   2.652
 3860  LAT   Au 4400   1.632   0.816   2.448
 3861  LAT   Au 4401   1.836   1.020   2.448
 3862  LAT   Au 4402   1.632   1.020   2.652
 3863  LAT   Au 4403   1.836   0.816   2.652
 3864  LAT   Au 4404   2.040   0.816   2.448
 3865  LAT   Au 4405   2.040   1.020   2.652
 3866  LAT   Au 4406   2.244   0.816   2.652
 3867  LAT   Au 4407   2.448   0.816   2.448
 3868  LAT   Au 4408   4.896   0.816   2.448
 3869  LAT   Au 4409   5.100   0.816   2.652
 3870  LAT   Au 4410   5.304   0.816   2.448
 3871  LAT   Au 4411   5.508   1.020   2.448
 3872  LAT   Au 4412   5.304   1.020   2.652
 3873  LAT   Au 4413   5.508   0.816   2.652
 3874  LAT   Au 4414   5.712   0.816   2.448
 3875  LAT   Au 4415   5.916   1.020   2.448
 3876  LAT   Au 4416   5.712   1.020   2.652
 3877  LAT   Au 4417   5.916   0.816   2.652
 3878  LAT   Au 4418   6.120   0.816   2.448
 3879  LAT   Au 4419   6.324   1.020   2.448
 3880  LAT   Au 4420   6.120   1.020   2.652
 3881  LAT   Au 4421   6.324   0.816   2.652
 3882  LAT   Au 4422   6.528   0.816   2.448
 3883  LAT   Au 4423   6.732   1.020   2.448
 3884  LAT   Au 4424   6.528   1.020   2.652
 3885  LAT   Au 4425   6.732   0.816   2.652
 3886  LAT   Au 4426   6.936   0.816   2.448
 3887  LAT   Au 4427   7.140   1.020   2.448
 3888  LAT   Au 4428   6.936   1.020   2.652
 3889  LAT   Au 4429   7.140   0.816   2.652
 3890  LAT   Au 4430   0.000   1.224   2.448
 3891  LAT   Au 4431   0.204   1.428   2.448
 3892  LAT   Au 4432   0.000   1.428   2.652
 3893  LAT   Au 4433   0.204   1.224   2.652
 3894  LAT   Au 4434   0.408   1.224   2.448
 3895  LAT   Au 4435   0.612   1.428   2.448
 3896  LAT   Au 4436   0.408   1.428   2.652
 3897  LAT   Au 4437   0.612   1.224   2.652
 3898  LAT   Au 4438   0.816   1.224   2.448
 3899  LAT   Au 4439   1.020   1.428   2.448
 3900  LAT   Au 4440   0.816   1.428   2.652
 3901  LAT   Au 4441   1.020   1.224   2.652
 3902  LAT   Au 4442   1.224   1.224   2.448
 3903  LAT   Au 4443   1.428   1.428   2.448
 3904  LAT   Au 4444   1.224   1.428   2.652
 3905  LAT   Au 4445   1.428   1.224   2.652
 3906  LAT   Au 4446   1.632   1.224   2.448
 3907  LAT   Au 4447   5.508   1.224   2.652
 3908  LAT   Au 4448   5.712   1.224   2.448
 3909  LAT   Au 4449   5.916   1.428   2.448
 3910  LAT   Au 4450   5.712   1.428   2.652
 3911  LAT   Au 4451   5.916   1.224   2.652
 3912  LAT   Au 4452   6.120   1.224   2.448
 3913  LAT   Au 4453   6.324   1.428   2.448
 3914  LAT   Au 4454   6.120   1.428   2.652
 3915  LAT   Au 4455   6.324   1.224   2.652
 3916  LAT   Au 4456   6.528   1.224   2.448
 3917  LAT   Au 4457   6.732   1.428   2.448
 3918  LAT   Au 4458   6.528   1.428   2.652
 3919  LAT   Au 4459   6.732   1.224   2.652
 3920  LAT   Au 4460   6.936   1.224   2.448
 3921  LAT   Au 4461   7.140   1.428   2.448
 3922  LAT   Au 4462   6.936   1.428   2.652
 3923  LAT   Au 4463   7.140   1.224   2.652
 3924  LAT   Au 4464   0.000   1.632   2.448
 3925  LAT   Au 4465   0.204   1.836   2.448
 3926  LAT   Au 4466   0.000   1.836   2.652
 3927  LAT   Au 4467   0.204   1.632   2.652
 3928  LAT   Au 4468   0.408   1.632   2.448
 3929  LAT   Au 4469   0.612   1.836   2.448
 3930  LAT   Au 4470   0.408   1.836   2.652
 3931  LAT   Au 4471   0.612   1.632   2.652
 3932  LAT   Au 4472   0.816   1.632   2.448
 3933  LAT   Au 4473   1.020   1.836   2.448
 3934  LAT   Au 4474   0.816   1.836   2.652
 3935  LAT   Au 4475   1.020   1.632   2.652
 3936  LAT   Au 4476   1.224   1.632   2.448
 3937  LAT   Au 4477   5.916   1.632   2.652
 3938  LAT   Au 4478   6.120   1.632   2.448
 3939  LAT   Au 4479   6.324   1.836   2.448
 3940  LAT   Au 4480   6.120   1.836   2.652
 3941  LAT   Au 4481   6.324   1.632   2.652
 3942  LAT   Au 4482   6.528   1.632   2.448
 3943  LAT   Au 4483   6.732   1.836   2.448
 3944  LAT   Au 4484   6.528   1.836   2.652
 3945  LAT   Au 4485   6.732   1.632   2.652
 3946  LAT   Au 4486   6.936   1.632   2.448
 3947  LAT   Au 4487   7.140   1.836   2.448
 3948  LAT   Au 4488   6.936   1.836   2.652
 3949  LAT   Au 4489   7.140   1.632   2.652
 3950  LAT   Au 4490   0.000   2.040   2.448
 3951  LAT   Au 4491   0.204   2.244   2.448
 3952  LAT   Au 4492   0.000   2.244   2.652
 3953  LAT   Au 4493   0.204   2.040   2.652
 3954  LAT   Au 4494   0.408   2.040   2.448
 3955  LAT   Au 4495   0.612   2.244   2.448
 3956  LAT   Au 4496   0.408   2.244   2.652
 3957  LAT   Au 4497   0.612   2.040   2.652
 3958  LAT   Au 4498   0.816   2.040   2.448
 3959  LAT   Au 4499   0.816   2.244   2.652
 3960  LAT   Au 4500   1.020   2.040   2.652
 3961  LAT   Au 4501   6.324   2.244   2.448
 3962  LAT   Au 4502   6.324   2.040   2.652
 3963  LAT   Au 4503   6.528   2.040   2.448
 3964  LAT   Au 4504   6.732   2.244   2.448
 3965  LAT   Au 4505   6.528   2.244   2.652
 3966  LAT   Au 4506   6.732   2.040   2.652
 3967  LAT   Au 4507   6.936   2.040   2.448
 3968  LAT   Au 4508   7.140   2.244   2.448
 3969  LAT   Au 4509   6.936   2.244   2.652
 3970  LAT   Au 4510   7.140   2.040   2.652
 3971  LAT   Au 4511   0.000   2.448   2.448
 3972  LAT   Au 4512   0.204   2.652   2.448
 3973  LAT   Au 4513   0.000   2.652   2.652
 3974  LAT   Au 4514   0.204   2.448   2.652
 3975  LAT   Au 4515   0.408   2.448   2.448
 3976  LAT   Au 4516   0.612   2.652   2.448
 3977  LAT   Au 4517   0.408   2.652   2.652
 3978  LAT   Au 4518   0.612   2.448   2.652
 3979  LAT   Au 4519   0.816   2.448   2.448
 3980  LAT   Au 4520   6.528   2.448   2.448
 3981  LAT   Au 4521   6.732   2.652   2.448
 3982  LAT   Au 4522   6.528   2.652   2.652
 3983  LAT   Au 4523   6.732   2.448   2.652
 3984  LAT   Au 4524   6.936   2.448   2.448
 3985  LAT   Au 4525   7.140   2.652   2.448
 3986  LAT   Au 4526   6.936   2.652   2.652
 3987  LAT   Au 4527   7.140   2.448   2.652
 3988  LAT   Au 4528   0.000   2.856   2.448
 3989  LAT   Au 4529   0.204   3.060   2.448
 3990  LAT   Au 4530   0.000   3.060   2.652
 3991  LAT   Au 4531   0.204   2.856   2.652
 3992  LAT   Au 4532   0.408   2.856   2.448
 3993  LAT   Au 4533   0.612   3.060   2.448
 3994  LAT   Au 4534   0.408   3.060   2.652
 3995  LAT   Au 4535   0.612   2.856   2.652
 3996  LAT   Au 4536   6.528   2.856   2.448
 3997  LAT   Au 4537   6.732   3.060   2.448
 3998  LAT   Au 4538   6.732   2.856   2.652
 3999  LAT   Au 4539   6.936   2.856   2.448
 4000  LAT   Au 4540   7.140   3.060   2.448
 4001  LAT   Au 4541   6.936   3.060   2.652
 4002  LAT   Au 4542   7.140   2.856   2.652
 4003  LAT   Au 4543   0.000   3.264   2.448
 4004  LAT   Au 4544   0.204   3.468   2.448
 4005  LAT   Au 4545   0.000   3.468   2.652
 4006  LAT   Au 4546   0.204   3.264   2.652
 4007  LAT   Au 4547   0.408   3.264   2.448
 4008  LAT   Au 4548   0.408   3.468   2.652
 4009  LAT   Au 4549   0.612   3.264   2.652
 4010  LAT   Au 4550   6.732   3.468   2.448
 4011  LAT   Au 4551   6.732   3.264   2.652
 4012  LAT   Au 4552   6.936   3.264   2.448
 4013  LAT   Au 4553   7.140   3.468   2.448
 4014  LAT   Au 4554   6.936   3.468   2.652
 4015  LAT   Au 4555   7.140   3.264   2.652
 4016  LAT   Au 4556   0.000   3.672   2.448
 4017  LAT   Au 4557   0.204   3.876   2.448
 4018  LAT   Au 4558   0.000   3.876   2.652
 4019  LAT   Au 4559   0.204   3.672   2.652
 4020  LAT   Au 4560   0.408   3.672   2.448
 4021  LAT   Au 4561   0.408   3.876   2.652
 4022  LAT   Au 4562   6.732   3.876   2.448
 4023  LAT   Au 4563   6.732   3.672   2.652
 4024  LAT   Au 4564   6.936   3.672   2.448
 4025  LAT   Au 4565   7.140   3.876   2.448
 4026  LAT   Au 4566   6.936   3.876   2.652
 4027  LAT   Au 4567   7.140   3.672   2.652
 4028  LAT   Au 4568   0.000   4.080   2.448
 4029  LAT   Au 4569   0.204   4.284   2.448
 4030  LAT   Au 4570   0.000   4.284   2.652
 4031  LAT   Au 4571   0.204   4.080   2.652
 4032  LAT   Au 4572   0.408   4.080   2.448
 4033  LAT   Au 4573   0.612   4.284   2.448
 4034  LAT   Au 4574   0.408   4.284   2.652
 4035  LAT   Au 4575   0.612   4.080   2.652
 4036  LAT   Au 4576   6.732   4.284   2.448
 4037  LAT   Au 4577   6.528   4.284   2.652
 4038  LAT   Au 4578   6.732   4.080   2.652
 4039  LAT   Au 4579   6.936   4.080   2.448
 4040  LAT   Au 4580   7.140   4.284   2.448
 4041  LAT   Au 4581   6.936   4.284   2.652
 4042  LAT   Au 4582   7.140   4.080   2.652
 4043  LAT   Au 4583   0.000   4.488   2.448
 4044  LAT   Au 4584   0.204   4.692   2.448
 4045  LAT   Au 4585   0.000   4.692   2.652
 4046  LAT   Au 4586   0.204   4.488   2.652
 4047  LAT   Au 4587   0.408   4.488   2.448
 4048  LAT   Au 4588   0.612   4.692   2.448
 4049  LAT   Au 4589   0.408   4.692   2.652
 4050  LAT   Au 4590   0.612   4.488   2.652
 4051  LAT   Au 4591   6.528   4.488   2.448
 4052  LAT   Au 4592   6.732   4.692   2.448
 4053  LAT   Au 4593   6.528   4.692   2.652
 4054  LAT   Au 4594   6.732   4.488   2.652
 4055  LAT   Au 4595   6.936   4.488   2.448
 4056  LAT   Au 4596   7.140   4.692   2.448
 4057  LAT   Au 4597   6.936   4.692   2.652
 4058  LAT   Au 4598   7.140   4.488   2.652
 4059  LAT   Au 4599   0.000   4.896   2.448
 4060  LAT   Au 4600   0.204   5.100   2.448
 4061  LAT   Au 4601   0.000   5.100   2.652
 4062  LAT   Au 4602   0.204   4.896   2.652
 4063  LAT   Au 4603   0.408   4.896   2.448
 4064  LAT   Au 4604   0.612   5.100   2.448
 4065  LAT   Au 4605   0.408   5.100   2.652
 4066  LAT   Au 4606   0.612   4.896   2.652
 4067  LAT   Au 4607   0.816   4.896   2.448
 4068  LAT   Au 4608   0.816   5.100   2.652
 4069  LAT   Au 4609   6.324   5.100   2.448
 4070  LAT   Au 4610   6.324   4.896   2.652
 4071  LAT   Au 4611   6.528   4.896   2.448
 4072  LAT   Au 4612   6.732   5.100   2.448
 4073  LAT   Au 4613   6.528   5.100   2.652
 4074  LAT   Au 4614   6.732   4.896   2.652
 4075  LAT   Au 4615   6.936   4.896   2.448
 4076  LAT   Au 4616   7.140   5.100   2.448
 4077  LAT   Au 4617   6.936   5.100   2.652
 4078  LAT   Au 4618   7.140   4.896   2.652
 4079  LAT   Au 4619   0.000   5.304   2.448
 4080  LAT   Au 4620   0.204   5.508   2.448
 4081  LAT   Au 4621   0.000   5.508   2.652
 4082  LAT   Au 4622   0.204   5.304   2.652
 4083  LAT   Au 4623   0.408   5.304   2.448
 4084  LAT   Au 4624   0.612   5.508   2.448
 4085  LAT   Au 4625   0.408   5.508   2.652
 4086  LAT   Au 4626   0.612   5.304   2.652
 4087  LAT   Au 4627   0.816   5.304   2.448
 4088  LAT   Au 4628   1.020   5.508   2.448
 4089  LAT   Au 4629   0.816   5.508   2.652
 4090  LAT   Au 4630   1.020   5.304   2.652
 4091  LAT   Au 4631   1.224   5.508   2.652
 4092  LAT   Au 4632   5.916   5.508   2.448
 4093  LAT   Au 4633   6.120   5.304   2.448
 4094  LAT   Au 4634   6.324   5.508   2.448
 4095  LAT   Au 4635   6.120   5.508   2.652
 4096  LAT   Au 4636   6.324   5.304   2.652
 4097  LAT   Au 4637   6.528   5.304   2.448
 4098  LAT   Au 4638   6.732   5.508   2.448
 4099  LAT   Au 4639   6.528   5.508   2.652
 4100  LAT   Au 4640   6.732   5.304   2.652
 4101  LAT   Au 4641   6.936   5.304   2.448
 4102  LAT   Au 4642   7.140   5.508   2.448
 4103  LAT   Au 4643   6.936   5.508   2.652
 4104  LAT   Au 4644   7.140   5.304   2.652
 4105  LAT   Au 4645   0.000   5.712   2.448
 4106  LAT   Au 4646   0.204   5.916   2.448
 4107  LAT   Au 4647   0.000   5.916   2.652
 4108  LAT   Au 4648   0.204   5.712   2.652
 4109  LAT   Au 4649   0.408   5.712   2.448
 4110  LAT   Au 4650   0.612   5.916   2.448
 4111  LAT   Au 4651   0.408   5.916   2.652
 4112  LAT   Au 4652   0.612   5.712   2.652
 4113  LAT   Au 4653   0.816   5.712   2.448
 4114  LAT   Au 4654   1.020   5.916   2.448
 4115  LAT   Au 4655   0.816   5.916   2.652
 4116  LAT   Au 4656   1.020   5.712   2.652
 4117  LAT   Au 4657   1.224   5.712   2.448
 4118  LAT   Au 4658   1.428   5.916   2.448
 4119  LAT   Au 4659   1.224   5.916   2.652
 4120  LAT   Au 4660   1.428   5.712   2.652
 4121  LAT   Au 4661   1.632   5.916   2.652
 4122  LAT   Au 4662   5.508   5.916   2.448
 4123  LAT   Au 4663   5.916   5.916   2.448
 4124  LAT   Au 4664   5.712   5.916   2.652
 4125  LAT   Au 4665   5.916   5.712   2.652
 4126  LAT   Au 4666   6.120   5.712   2.448
 4127  LAT   Au 4667   6.324   5.916   2.448
 4128  LAT   Au 4668   6.120   5.916   2.652
 4129  LAT   Au 4669   6.324   5.712   2.652
 4130  LAT   Au 4670   6.528   5.712   2.448
 4131  LAT   Au 4671   6.732   5.916   2.448
 4132  LAT   Au 4672   6.528   5.916   2.652
 4133  LAT   Au 4673   6.732   5.712   2.652
 4134  LAT   Au 4674   6.936   5.712   2.448
 4135  LAT   Au 4675   7.140   5.916   2.448
 4136  LAT   Au 4676   6.936   5.916   2.652
 4137  LAT   Au 4677   7.140   5.712   2.652
 4138  LAT   Au 4678   0.000   6.120   2.448
 4139  LAT   Au 4679   0.204   6.324   2.448
 4140  LAT   Au 4680   0.000   6.324   2.652
 4141  LAT   Au 4681   0.204   6.120   2.652
 4142  LAT   Au 4682   0.408   6.120   2.448
 4143  LAT   Au 4683   0.612   6.324   2.448
 4144  LAT   Au 4684   0.408   6.324   2.652
 4145  LAT   Au 4685   0.612   6.120   2.652
 4146  LAT   Au 4686   0.816   6.120   2.448
 4147  LAT   Au 4687   1.020   6.324   2.448
 4148  LAT   Au 4688   0.816   6.324   2.652
 4149  LAT   Au 4689   1.020   6.120   2.652
 4150  LAT   Au 4690   1.224   6.120   2.448
 4151  LAT   Au 4691   1.428   6.324   2.448
 4152  LAT   Au 4692   1.224   6.324   2.652
 4153  LAT   Au 4693   1.428   6.120   2.652
 4154  LAT   Au 4694   1.632   6.120   2.448
 4155  LAT   Au 4695   1.836   6.324   2.448
 4156  LAT   Au 4696   1.632   6.324   2.652
 4157  LAT   Au 4697   1.836   6.120   2.652
 4158  LAT   Au 4698   2.244   6.324   2.448
 4159  LAT   Au 4699   2.040   6.324   2.652
 4160  LAT   Au 4700   5.100   6.324   2.448
 4161  LAT   Au 4701   4.896   6.324   2.652
 4162  LAT   Au 4702   5.304   6.120   2.448
 4163  LAT   Au 4703   5.508   6.324   2.448
 4164  LAT   Au 4704   5.304   6.324   2.652
 4165  LAT   Au 4705   5.508   6.120   2.652
 4166  LAT   Au 4706   5.712   6.120   2.448
 4167  LAT   Au 4707   5.916   6.324   2.448
 4168  LAT   Au 4708   5.712   6.324   2.652
 4169  LAT   Au 4709   5.916   6.120   2.652
 4170  LAT   Au 4710   6.120   6.120   2.448
 4171  LAT   Au 4711   6.324   6.324   2.448
 4172  LAT   Au 4712   6.120   6.324   2.652
 4173  LAT   Au 4713   6.324   6.120   2.652
 4174  LAT   Au 4714   6.528   6.120   2.448
 4175  LAT   Au 4715   6.732   6.324   2.448
 4176  LAT   Au 4716   6.528   6.324   2.652
 4177  LAT   Au 4717   6.732   6.120   2.652
 4178  LAT   Au 4718   6.936   6.120   2.448
 4179  LAT   Au 4719   7.140   6.324   2.448
 4180  LAT   Au 4720   6.936   6.324   2.652
 4181  LAT   Au 4721   7.140   6.120   2.652
 4182  LAT   Au 4722   0.000   6.528   2.448
 4183  LAT   Au 4723   0.204   6.732   2.448
 4184  LAT   Au 4724   0.000   6.732   2.652
 4185  LAT   Au 4725   0.204   6.528   2.652
 4186  LAT   Au 4726   0.408   6.528   2.448
 4187  LAT   Au 4727   0.612   6.732   2.448
 4188  LAT   Au 4728   0.408   6.732   2.652
 4189  LAT   Au 4729   0.612   6.528   2.652
 4190  LAT   Au 4730   0.816   6.528   2.448
 4191  LAT   Au 4731   1.020   6.732   2.448
 4192  LAT   Au 4732   0.816   6.732   2.652
 4193  LAT   Au 4733   1.020   6.528   2.652
 4194  LAT   Au 4734   1.224   6.528   2.448
 4195  LAT   Au 4735   1.428   6.732   2.448
 4196  LAT   Au 4736   1.224   6.732   2.652
 4197  LAT   Au 4737   1.428   6.528   2.652
 4198  LAT   Au 4738   1.632   6.528   2.448
 4199  LAT   Au 4739   1.836   6.732   2.448
 4200  LAT   Au 4740   1.632   6.732   2.652
 4201  LAT   Au 4741   1.836   6.528   2.652
 4202  LAT   Au 4742   2.040   6.528   2.448
 4203  LAT   Au 4743   2.244   6.732   2.448
 4204  LAT   Au 4744   2.040   6.732   2.652
 4205  LAT   Au 4745   2.244   6.528   2.652
 4206  LAT   Au 4746   2.448   6.528   2.448
 4207  LAT   Au 4747   2.652   6.732   2.448
 4208  LAT   Au 4748   2.448   6.732   2.652
 4209  LAT   Au 4749   2.652   6.528   2.652
 4210  LAT   Au 4750   2.856   6.528   2.448
 4211  LAT   Au 4751   3.060   6.732   2.448
 4212  LAT   Au 4752   2.856   6.732   2.652
 4213  LAT   Au 4753   3.468   6.732   2.448
 4214  LAT   Au 4754   3.264   6.732   2.652
 4215  LAT   Au 4755   3.876   6.732   2.448
 4216  LAT   Au 4756   3.672   6.732   2.652
 4217  LAT   Au 4757   4.284   6.732   2.448
 4218  LAT   Au 4758   4.080   6.732   2.652
 4219  LAT   Au 4759   4.284   6.528   2.652
 4220  LAT   Au 4760   4.488   6.528   2.448
 4221  LAT   Au 4761   4.692   6.732   2.448
 4222  LAT   Au 4762   4.488   6.732   2.652
 4223  LAT   Au 4763   4.692   6.528   2.652
 4224  LAT   Au 4764   4.896   6.528   2.448
 4225  LAT   Au 4765   5.100   6.732   2.448
 4226  LAT   Au 4766   4.896   6.732   2.652
 4227  LAT   Au 4767   5.100   6.528   2.652
 4228  LAT   Au 4768   5.304   6.528   2.448
 4229  LAT   Au 4769   5.508   6.732   2.448
 4230  LAT   Au 4770   5.304   6.732   2.652
 4231  LAT   Au 4771   5.508   6.528   2.652
 4232  LAT   Au 4772   5.712   6.528   2.448
 4233  LAT   Au 4773   5.916   6.732   2.448
 4234  LAT   Au 4774   5.712   6.732   2.652
 4235  LAT   Au 4775   5.916   6.528   2.652
 4236  LAT   Au 4776   6.120   6.528   2.448
 4237  LAT   Au 4777   6.324   6.732   2.448
 4238  LAT   Au 4778   6.120   6.732   2.652
 4239  LAT   Au 4779   6.324   6.528   2.652
 4240  LAT   Au 4780   6.528   6.528   2.448
 4241  LAT   Au 4781   6.732   6.732   2.448
 4242  LAT   Au 4782   6.528   6.732   2.652
 4243  LAT   Au 4783   6.732   6.528   2.652
 4244  LAT   Au 4784   6.936   6.528   2.448
 4245  LAT   Au 4785   7.140   6.732   2.448
 4246  LAT   Au 4786   6.936   6.732   2.652
 4247  LAT   Au 4787   7.140   6.528   2.652
 4248  LAT   Au 4788   0.000   6.936   2.448
 4249  LAT   Au 4789   0.204   7.140   2.448
 4250  LAT   Au 4790   0.000   7.140   2.652
 4251  LAT   Au 4791   0.204   6.936   2.652
 4252  LAT   Au 4792   0.408   6.936   2.448
 4253  LAT   Au 4793   0.612   7.140   2.448
 4254  LAT   Au 4794   0.408   7.140   2.652
 4255  LAT   Au 4795   0.612   6.936   2.652
 4256  LAT   Au 4796   0.816   6.936   2.448
 4257  LAT   Au 4797   1.020   7.140   2.448
 4258  LAT   Au 4798   0.816   7.140   2.652
 4259  LAT   Au 4799   1.020   6.936   2.652
 4260  LAT   Au 4800   1.224   6.936   2.448
 4261  LAT   Au 4801   1.428   7.140   2.448
 4262  LAT   Au 4802   1.224   7.140   2.652
 4263  LAT   Au 4803   1.428   6.936   2.652
 4264  LAT   Au 4804   1.632   6.936   2.448
 4265  LAT   Au 4805   1.836   7.140   2.448
 4266  LAT   Au 4806   1.632   7.140   2.652
 4267  LAT   Au 4807   1.836   6.936   2.652
 4268  LAT   Au 4808   2.040   6.936   2.448
 4269  LAT   Au 4809   2.244   7.140   2.448
 4270  LAT   Au 4810   2.040   7.140   2.652
 4271  LAT   Au 4811   2.244   6.936   2.652
 4272  LAT   Au 4812   2.448   6.936   2.448
 4273  LAT   Au 4813   2.652   7.140   2.448
 4274  LAT   Au 4814   2.448   7.140   2.652
 4275  LAT   Au 4815   2.652   6.936   2.652
 4276  LAT   Au 4816   2.856   6.936   2.448
 4277  LAT   Au 4817   3.060   7.140   2.448
 4278  LAT   Au 4818   2.856   7.140   2.652
 4279  LAT   Au 4819   3.060   6.936   2.652
 4280  LAT   Au 4820   3.264   6.936   2.448
 4281  LAT   Au 4821   3.468   7.140   2.448
 4282  LAT   Au 4822   3.264   7.140   2.652
 4283  LAT   Au 4823   3.468   6.936   2.652
 4284  LAT   Au 4824   3.672   6.936   2.448
 4285  LAT   Au 4825   3.876   7.140   2.448
 4286  LAT   Au 4826   3.672   7.140   2.652
 4287  LAT   Au 4827   3.876   6.936   2.652
 4288  LAT   Au 4828   4.080   6.936   2.448
 4289  LAT   Au 4829   4.284   7.140   2.448
 4290  LAT   Au 4830   4.080   7.140   2.652
 4291  LAT   Au 4831   4.284   6.936   2.652
 4292  LAT   Au 4832   4.488   6.936   2.448
 4293  LAT   Au 4833   4.692   7.140   2.448
 4294  LAT   Au 4834   4.488   7.140   2.652
 4295  LAT   Au 4835   4.692   6.936   2.652
 4296  LAT   Au 4836   4.896   6.936   2.448
 4297  LAT   Au 4837   5.100   7.140   2.448
 4298  LAT   Au 4838   4.896   7.140   2.652
 4299  LAT   Au 4839   5.100   6.936   2.652
 4300  LAT   Au 4840   5.304   6.936   2.448
 4301  LAT   Au 4841   5.508   7.140   2.448
 4302  LAT   Au 4842   5.304   7.140   2.652
 4303  LAT   Au 4843   5.508   6.936   2.652
 4304  LAT   Au 4844   5.712   6.936   2.448
 4305  LAT   Au 4845   5.916   7.140   2.448
 4306  LAT   Au 4846   5.712   7.140   2.652
 4307  LAT   Au 4847   5.916   6.936   2.652
 4308  LAT   Au 4848   6.120   6.936   2.448
 4309  LAT   Au 4849   6.324   7.140   2.448
 4310  LAT   Au 4850   6.120   7.140   2.652
 4311  LAT   Au 4851   6.324   6.936   2.652
 4312  LAT   Au 4852   6.528   6.936   2.448
 4313  LAT   Au 4853   6.732   7.140   2.448
 4314  LAT   Au 4854   6.528   7.140   2.652
 4315  LAT   Au 4855   6.732   6.936   2.652
 4316  LAT   Au 4856   6.936   6.936   2.448
 4317  LAT   Au 4857   7.140   7.140   2.448
 4318  LAT   Au 4858   6.936   7.140   2.652
 4319  LAT   Au 4859   7.140   6.936   2.652
 4320  LAT   Au 4860   0.000   0.000   2.856
 4321  LAT   Au 4861   0.204   0.204   2.856
 4322  LAT   Au 4862   0.000   0.204   3.060
 4323  LAT   Au 4863   0.204   0.000   3.060
 4324  LAT   Au 4864   0.408   0.000   2.856
 4325  LAT   Au 4865   0.612   0.204   2.856
 4326  LAT   Au 4866   0.408   0.204   3.060
 4327  LAT   Au 4867   0.612   0.000   3.060
 4328  LAT   Au 4868   0.816   0.000   2.856
 4329  LAT   Au 4869   1.020   0.204   2.856
 4330  LAT   Au 4870   0.816   0.204   3.060
 4331  LAT   Au 4871   1.020   0.000   3.060
 4332  LAT   Au 4872   1.224   0.000   2.856
 4333  LAT   Au 4873   1.428   0.204   2.856
 4334  LAT   Au 4874   1.224   0.204   3.060
 4335  LAT   Au 4875   1.428   0.000   3.060
 4336  LAT   Au 4876   1.632   0.000   2.856
 4337  LAT   Au 4877   1.836   0.204   2.856
 4338  LAT   Au 4878   1.632   0.204   3.060
 4339  LAT   Au 4879   1.836   0.000   3.060
 4340  LAT   Au 4880   2.040   0.000   2.856
 4341  LAT   Au 4881   2.244   0.204   2.856
 4342  LAT   Au 4882   2.040   0.204   3.060
 4343  LAT   Au 4883   2.244   0.000   3.060
 4344  LAT   Au 4884   2.448   0.000   2.856
 4345  LAT   Au 4885   2.652   0.204   2.856
 4346  LAT   Au 4886   2.448   0.204   3.060
 4347  LAT   Au 4887   2.652   0.000   3.060
 4348  LAT   Au 4888   2.856   0.000   2.856
 4349  LAT   Au 4889   3.060   0.204   2.856
 4350  LAT   Au 4890   2.856   0.204   3.060
 4351  LAT   Au 4891   3.060   0.000   3.060
 4352  LAT   Au 4892   3.264   0.000   2.856
 4353  LAT   Au 4893   3.468   0.204   2.856
 4354  LAT   Au 4894   3.264   0.204   3.060
 4355  LAT   Au 4895   3.468   0.000   3.060
 4356  LAT   Au 4896   3.672   0.000   2.856
 4357  LAT   Au 4897   3.876   0.204   2.856
 4358  LAT   Au 4898   3.672   0.204   3.060
 4359  LAT   Au 4899   3.876   0.000   3.060
 4360  LAT   Au 4900   4.080   0.000   2.856
 4361  LAT   Au 4901   4.284   0.204   2.856
 4362  LAT   Au 4902   4.080   0.204   3.060
 4363  LAT   Au 4903   4.284   0.000   3.060
 4364  LAT   Au 4904   4.488   0.000   2.856
 4365  LAT   Au 4905   4.692   0.204   2.856
 4366  LAT   Au 4906   4.488   0.204   3.060
 4367  LAT   Au 4907   4.692   0.000   3.060
 4368  LAT   Au 4908   4.896   0.000   2.856
 4369  LAT   Au 4909   5.100   0.204   2.856
 4370  LAT   Au 4910   4.896   0.204   3.060
 4371  LAT   Au 4911   5.100   0.000   3.060
 4372  LAT   Au 4912   5.304   0.000   2.856
 4373  LAT   Au 4913   5.508   0.204   2.856
 4374  LAT   Au 4914   5.304   0.204   3.060
 4375  LAT   Au 4915   5.508   0.000   3.060
 4376  LAT   Au 4916   5.712   0.000   2.856
 4377  LAT   Au 4917   5.916   0.204   2.856
 4378  LAT   Au 4918   5.712   0.204   3.060
 4379  LAT   Au 4919   5.916   0.000   3.060
 4380  LAT   Au 4920   6.120   0.000   2.856
 4381  LAT   Au 4921   6.324   0.204   2.856
 4382  LAT   Au 4922   6.120   0.204   3.060
 4383  LAT   Au 4923   6.324   0.000   3.060
 4384  LAT   Au 4924   6.528   0.000   2.856
 4385  LAT   Au 4925   6.732   0.204   2.856
 4386  LAT   Au 4926   6.528   0.204   3.060
 4387  LAT   Au 4927   6.732   0.000   3.060
 4388  LAT   Au 4928   6.936   0.000   2.856
 4389  LAT   Au 4929   7.140   0.204   2.856
 4390  LAT   Au 4930   6.936   0.204   3.060
 4391  LAT   Au 4931   7.140   0.000   3.060
 4392  LAT   Au 4932   0.000   0.408   2.856
 4393  LAT   Au 4933   0.204   0.612   2.856
 4394  LAT   Au 4934   0.000   0.612   3.060
 4395  LAT   Au 4935   0.204   0.408   3.060
 4396  LAT   Au 4936   0.408   0.408   2.856
 4397  LAT   Au 4937   0.612   0.612   2.856
 4398  LAT   Au 4938   0.408   0.612   3.060
 4399  LAT   Au 4939   0.612   0.408   3.060
 4400  LAT   Au 4940   0.816   0.408   2.856
 4401  LAT   Au 4941   1.020   0.612   2.856
 4402  LAT   Au 4942   0.816   0.612   3.060
 4403  LAT   Au 4943   1.020   0.408   3.060
 4404  LAT   Au 4944   1.224   0.408   2.856
 4405  LAT   Au 4945   1.428   0.612   2.856
 4406  LAT   Au 4946   1.224   0.612   3.060
 4407  LAT   Au 4947   1.428   0.408   3.060
 4408  LAT   Au 4948   1.632   0.408   2.856
 4409  LAT   Au 4949   1.836   0.612   2.856
 4410  LAT   Au 4950   1.632   0.612   3.060
 4411  LAT   Au 4951   1.836   0.408   3.060
 4412  LAT   Au 4952   2.040   0.408   2.856
 4413  LAT   Au 4953   2.244   0.612   2.856
 4414  LAT   Au 4954   2.040   0.612   3.060
 4415  LAT   Au 4955   2.244   0.408   3.060
 4416  LAT   Au 4956   2.448   0.408   2.856
 4417  LAT   Au 4957   2.652   0.612   2.856
 4418  LAT   Au 4958   2.448   0.612   3.060
 4419  LAT   Au 4959   2.652   0.408   3.060
 4420  LAT   Au 4960   2.856   0.408   2.856
 4421  LAT   Au 4961   3.060   0.612   2.856
 4422  LAT   Au 4962   2.856   0.612   3.060
 4423  LAT   Au 4963   3.060   0.408   3.060
 4424  LAT   Au 4964   3.264   0.408   2.856
 4425  LAT   Au 4965   3.264   0.612   3.060
 4426  LAT   Au 4966   3.468   0.408   3.060
 4427  LAT   Au 4967   3.672   0.408   2.856
 4428  LAT   Au 4968   3.876   0.408   3.060
 4429  LAT   Au 4969   4.080   0.408   2.856
 4430  LAT   Au 4970   4.284   0.612   2.856
 4431  LAT   Au 4971   4.080   0.612   3.060
 4432  LAT   Au 4972   4.284   0.408   3.060
 4433  LAT   Au 4973   4.488   0.408   2.856
 4434  LAT   Au 4974   4.692   0.612   2.856
 4435  LAT   Au 4975   4.488   0.612   3.060
 4436  LAT   Au 4976   4.692   0.408   3.060
 4437  LAT   Au 4977   4.896   0.408   2.856
 4438  LAT   Au 4978   5.100   0.612   2.856
 4439  LAT   Au 4979   4.896   0.612   3.060
 4440  LAT   Au 4980   5.100   0.408   3.060
 4441  LAT   Au 4981   5.304   0.408   2.856
 4442  LAT   Au 4982   5.508   0.612   2.856
 4443  LAT   Au 4983   5.304   0.612   3.060
 4444  LAT   Au 4984   5.508   0.408   3.060
 4445  LAT   Au 4985   5.712   0.408   2.856
 4446  LAT   Au 4986   5.916   0.612   2.856
 4447  LAT   Au 4987   5.712   0.612   3.060
 4448  LAT   Au 4988   5.916   0.408   3.060
 4449  LAT   Au 4989   6.120   0.408   2.856
 4450  LAT   Au 4990   6.324   0.612   2.856
 4451  LAT   Au 4991   6.120   0.612   3.060
 4452  LAT   Au 4992   6.324   0.408   3.060
 4453  LAT   Au 4993   6.528   0.408   2.856
 4454  LAT   Au 4994   6.732   0.612   2.856
 4455  LAT   Au 4995   6.528   0.612   3.060
 4456  LAT   Au 4996   6.732   0.408   3.060
 4457  LAT   Au 4997   6.936   0.408   2.856
 4458  LAT   Au 4998   7.140   0.612   2.856
 4459  LAT   Au 4999   6.936   0.612   3.060
 4460  LAT   Au 5000   7.140   0.408   3.060
 4461  LAT   Au 5001   0.000   0.816   2.856
 4462  LAT   Au 5002   0.204   1.020   2.856
 4463  LAT   Au 5003   0.000   1.020   3.060
 4464  LAT   Au 5004   0.204   0.816   3.060
 4465  LAT   Au 5005   0.408   0.816   2.856
 4466  LAT   Au 5006   0.612   1.020   2.856
 4467  LAT   Au 5007   0.408   1.020   3.060
 4468  LAT   Au 5008   0.612   0.816   3.060
 4469  LAT   Au 5009   0.816   0.816   2.856
 4470  LAT   Au 5010   1.020   1.020   2.856
 4471  LAT   Au 5011   0.816   1.020   3.060
 4472  LAT   Au 5012   1.020   0.816   3.060
 4473  LAT   Au 5013   1.224   0.816   2.856
 4474  LAT   Au 5014   1.428   1.020   2.856
 4475  LAT   Au 5015   1.224   1.020   3.060
 4476  LAT   Au 5016   1.428   0.816   3.060
 4477  LAT   Au 5017   1.632   0.816   2.856
 4478  LAT   Au 5018   1.836   1.020   2.856
 4479  LAT   Au 5019   1.632   1.020   3.060
 4480  LAT   Au 5020   1.836   0.816   3.060
 4481  LAT   Au 5021   2.040   0.816   2.856
 4482  LAT   Au 5022   2.040   1.020   3.060
 4483  LAT   Au 5023   2.244   0.816   3.060
 4484  LAT   Au 5024   2.448   0.816   2.856
 4485  LAT   Au 5025   4.896   0.816   2.856
 4486  LAT   Au 5026   5.100   0.816   3.060
 4487  LAT   Au 5027   5.304   0.816   2.856
 4488  LAT   Au 5028   5.508   1.020   2.856
 4489  LAT   Au 5029   5.304   1.020   3.060
 4490  LAT   Au 5030   5.508   0.816   3.060
 4491  LAT   Au 5031   5.712   0.816   2.856
 4492  LAT   Au 5032   5.916   1.020   2.856
 4493  LAT   Au 5033   5.712   1.020   3.060
 4494  LAT   Au 5034   5.916   0.816   3.060
 4495  LAT   Au 5035   6.120   0.816   2.856
 4496  LAT   Au 5036   6.324   1.020   2.856
 4497  LAT   Au 5037   6.120   1.020   3.060
 4498  LAT   Au 5038   6.324   0.816   3.060
 4499  LAT   Au 5039   6.528   0.816   2.856
 4500  LAT   Au 5040   6.732   1.020   2.856
 4501  LAT   Au 5041   6.528   1.020   3.060
 4502  LAT   Au 5042   6.732   0.816   3.060
 4503  LAT   Au 5043   6.936   0.816   2.856
 4504  LAT   Au 5044   7.140   1.020   2.856
 4505  LAT   Au 5045   6.936   1.020   3.060
 4506  LAT   Au 5046   7.140   0.816   3.060
 4507  LAT   Au 5047   0.000   1.224   2.856
 4508  LAT   Au 5048   0.204   1.428   2.856
 4509  LAT   Au 5049   0.000   1.428   3.060
 4510  LAT   Au 5050   0.204   1.224   3.060
 4511  LAT   Au 5051   0.408   1.224   2.856
 4512  LAT   Au 5052   0.612   1.428   2.856
 4513  LAT   Au 5053   0.408   1.428   3.060
 4514  LAT   Au 5054   0.612   1.224   3.060
 4515  LAT   Au 5055   0.816   1.224   2.856
 4516  LAT   Au 5056   1.020   1.428   2.856
 4517  LAT   Au 5057   0.816   1.428   3.060
 4518  LAT   Au 5058   1.020   1.224   3.060
 4519  LAT   Au 5059   1.224   1.224   2.856
 4520  LAT   Au 5060   1.428   1.428   2.856
 4521  LAT   Au 5061   1.224   1.428   3.060
 4522  LAT   Au 5062   1.428   1.224   3.060
 4523  LAT   Au 5063   1.632   1.224   2.856
 4524  LAT   Au 5064   5.508   1.224   3.060
 4525  LAT   Au 5065   5.712   1.224   2.856
 4526  LAT   Au 5066   5.916   1.428   2.856
 4527  LAT   Au 5067   5.712   1.428   3.060
 4528  LAT   Au 5068   5.916   1.224   3.060
 4529  LAT   Au 5069   6.120   1.224   2.856
 4530  LAT   Au 5070   6.324   1.428   2.856
 4531  LAT   Au 5071   6.120   1.428   3.060
 4532  LAT   Au 5072   6.324   1.224   3.060
 4533  LAT   Au 5073   6.528   1.224   2.856
 4534  LAT   Au 5074   6.732   1.428   2.856
 4535  LAT   Au 5075   6.528   1.428   3.060
 4536  LAT   Au 5076   6.732   1.224   3.060
 4537  LAT   Au 5077   6.936   1.224   2.856
 4538  LAT   Au 5078   7.140   1.428   2.856
 4539  LAT   Au 5079   6.936   1.428   3.060
 4540  LAT   Au 5080   7.140   1.224   3.060
 4541  LAT   Au 5081   0.000   1.632   2.856
 4542  LAT   Au 5082   0.204   1.836   2.856
 4543  LAT   Au 5083   0.000   1.836   3.060
 4544  LAT   Au 5084   0.204   1.632   3.060
 4545  LAT   Au 5085   0.408   1.632   2.856
 4546  LAT   Au 5086   0.612   1.836   2.856
 4547  LAT   Au 5087   0.408   1.836   3.060
 4548  LAT   Au 5088   0.612   1.632   3.060
 4549  LAT   Au 5089   0.816   1.632   2.856
 4550  LAT   Au 5090   1.020   1.836   2.856
 4551  LAT   Au 5091   0.816   1.836   3.060
 4552  LAT   Au 5092   1.020   1.632   3.060
 4553  LAT   Au 5093   1.224   1.632   2.856
 4554  LAT   Au 5094   5.916   1.632   3.060
 4555  LAT   Au 5095   6.120   1.632   2.856
 4556  LAT   Au 5096   6.324   1.836   2.856
 4557  LAT   Au 5097   6.120   1.836   3.060
 4558  LAT   Au 5098   6.324   1.632   3.060
 4559  LAT   Au 5099   6.528   1.632   2.856
 4560  LAT   Au 5100   6.732   1.836   2.856
 4561  LAT   Au 5101   6.528   1.836   3.060
 4562  LAT   Au 5102   6.732   1.632   3.060
 4563  LAT   Au 5103   6.936   1.632   2.856
 4564  LAT   Au 5104   7.140   1.836   2.856
 4565  LAT   Au 5105   6.936   1.836   3.060
 4566  LAT   Au 5106   7.140   1.632   3.060
 4567  LAT   Au 5107   0.000   2.040   2.856
 4568  LAT   Au 5108   0.204   2.244   2.856
 4569  LAT   Au 5109   0.000   2.244   3.060
 4570  LAT   Au 5110   0.204   2.040   3.060
 4571  LAT   Au 5111   0.408   2.040   2.856
 4572  LAT   Au 5112   0.612   2.244   2.856
 4573  LAT   Au 5113   0.408   2.244   3.060
 4574  LAT   Au 5114   0.612   2.040   3.060
 4575  LAT   Au 5115   0.816   2.040   2.856
 4576  LAT   Au 5116   0.816   2.244   3.060
 4577  LAT   Au 5117   1.020   2.040   3.060
 4578  LAT   Au 5118   6.324   2.244   2.856
 4579  LAT   Au 5119   6.324   2.040   3.060
 4580  LAT   Au 5120   6.528   2.040   2.856
 4581  LAT   Au 5121   6.732   2.244   2.856
 4582  LAT   Au 5122   6.528   2.244   3.060
 4583  LAT   Au 5123   6.732   2.040   3.060
 4584  LAT   Au 5124   6.936   2.040   2.856
 4585  LAT   Au 5125   7.140   2.244   2.856
 4586  LAT   Au 5126   6.936   2.244   3.060
 4587  LAT   Au 5127   7.140   2.040   3.060
 4588  LAT   Au 5128   0.000   2.448   2.856
 4589  LAT   Au 5129   0.204   2.652   2.856
 4590  LAT   Au 5130   0.000   2.652   3.060
 4591  LAT   Au 5131   0.204   2.448   3.060
 4592  LAT   Au 5132   0.408   2.448   2.856
 4593  LAT   Au 5133   0.612   2.652   2.856
 4594  LAT   Au 5134   0.408   2.652   3.060
 4595  LAT   Au 5135   0.612   2.448   3.060
 4596  LAT   Au 5136   0.816   2.448   2.856
 4597  LAT   Au 5137   6.528   2.448   2.856
 4598  LAT   Au 5138   6.732   2.652   2.856
 4599  LAT   Au 5139   6.528   2.652   3.060
 4600  LAT   Au 5140   6.732   2.448   3.060
 4601  LAT   Au 5141   6.936   2.448   2.856
 4602  LAT   Au 5142   7.140   2.652   2.856
 4603  LAT   Au 5143   6.936   2.652   3.060
 4604  LAT   Au 5144   7.140   2.448   3.060
 4605  LAT   Au 5145   0.000   2.856   2.856
 4606  LAT   Au 5146   0.204   3.060   2.856
 4607  LAT   Au 5147   0.000   3.060   3.060
 4608  LAT   Au 5148   0.204   2.856   3.060
 4609  LAT   Au 5149   0.408   2.856   2.856
 4610  LAT   Au 5150   0.612   3.060   2.856
 4611  LAT   Au 5151   0.408   3.060   3.060
 4612  LAT   Au 5152   0.612   2.856   3.060
 4613  LAT   Au 5153   6.528   2.856   2.856
 4614  LAT   Au 5154   6.732   3.060   2.856
 4615  LAT   Au 5155   6.732   2.856   3.060
 4616  LAT   Au 5156   6.936   2.856   2.856
 4617  LAT   Au 5157   7.140   3.060   2.856
 4618  LAT   Au 5158   6.936   3.060   3.060
 4619  LAT   Au 5159   7.140   2.856   3.060
 4620  LAT   Au 5160   0.000   3.264   2.856
 4621  LAT   Au 5161   0.204   3.468   2.856
 4622  LAT   Au 5162   0.000   3.468   3.060
 4623  LAT   Au 5163   0.204   3.264   3.060
 4624  LAT   Au 5164   0.408   3.264   2.856
 4625  LAT   Au 5165   0.408   3.468   3.060
 4626  LAT   Au 5166   0.612   3.264   3.060
 4627  LAT   Au 5167   6.732   3.468   2.856
 4628  LAT   Au 5168   6.732   3.264   3.060
 4629  LAT   Au 5169   6.936   3.264   2.856
 4630  LAT   Au 5170   7.140   3.468   2.856
 4631  LAT   Au 5171   6.936   3.468   3.060
 4632  LAT   Au 5172   7.140   3.264   3.060
 4633  LAT   Au 5173   0.000   3.672   2.856
 4634  LAT   Au 5174   0.204   3.876   2.856
 4635  LAT   Au 5175   0.000   3.876   3.060
 4636  LAT   Au 5176   0.204   3.672   3.060
 4637  LAT   Au 5177   0.408   3.672   2.856
 4638  LAT   Au 5178   0.408   3.876   3.060
 4639  LAT   Au 5179   6.732   3.876   2.856
 4640  LAT   Au 5180   6.732   3.672   3.060
 4641  LAT   Au 5181   6.936   3.672   2.856
 4642  LAT   Au 5182   7.140   3.876   2.856
 4643  LAT   Au 5183   6.936   3.876   3.060
 4644  LAT   Au 5184   7.140   3.672   3.060
 4645  LAT   Au 5185   0.000   4.080   2.856
 4646  LAT   Au 5186   0.204   4.284   2.856
 4647  LAT   Au 5187   0.000   4.284   3.060
 4648  LAT   Au 5188   0.204   4.080   3.060
 4649  LAT   Au 5189   0.408   4.080   2.856
 4650  LAT   Au 5190   0.612   4.284   2.856
 4651  LAT   Au 5191   0.408   4.284   3.060
 4652  LAT   Au 5192   0.612   4.080   3.060
 4653  LAT   Au 5193   6.732   4.284   2.856
 4654  LAT   Au 5194   6.528   4.284   3.060
 4655  LAT   Au 5195   6.732   4.080   3.060
 4656  LAT   Au 5196   6.936   4.080   2.856
 4657  LAT   Au 5197   7.140   4.284   2.856
 4658  LAT   Au 5198   6.936   4.284   3.060
 4659  LAT   Au 5199   7.140   4.080   3.060
 4660  LAT   Au 5200   0.000   4.488   2.856
 4661  LAT   Au 5201   0.204   4.692   2.856
 4662  LAT   Au 5202   0.000   4.692   3.060
 4663  LAT   Au 5203   0.204   4.488   3.060
 4664  LAT   Au 5204   0.408   4.488   2.856
 4665  LAT   Au 5205   0.612   4.692   2.856
 4666  LAT   Au 5206   0.408   4.692   3.060
 4667  LAT   Au 5207   0.612   4.488   3.060
 4668  LAT   Au 5208   6.528   4.488   2.856
 4669  LAT   Au 5209   6.732   4.692   2.856
 4670  LAT   Au 5210   6.528   4.692   3.060
 4671  LAT   Au 5211   6.732   4.488   3.060
 4672  LAT   Au 5212   6.936   4.488   2.856
 4673  LAT   Au 5213   7.140   4.692   2.856
 4674  LAT   Au 5214   6.936   4.692   3.060
 4675  LAT   Au 5215   7.140   4.488   3.060
 4676  LAT   Au 5216   0.000   4.896   2.856
 4677  LAT   Au 5217   0.204   5.100   2.856
 4678  LAT   Au 5218   0.000   5.100   3.060
 4679  LAT   Au 5219   0.204   4.896   3.060
 4680  LAT   Au 5220   0.408   4.896   2.856
 4681  LAT   Au 5221   0.612   5.100   2.856
 4682  LAT   Au 5222   0.408   5.100   3.060
 4683  LAT   Au 5223   0.612   4.896   3.060
 4684  LAT   Au 5224   0.816   4.896   2.856
 4685  LAT   Au 5225   0.816   5.100   3.060
 4686  LAT   Au 5226   6.324   5.100   2.856
 4687  LAT   Au 5227   6.324   4.896   3.060
 4688  LAT   Au 5228   6.528   4.896   2.856
 4689  LAT   Au 5229   6.732   5.100   2.856
 4690  LAT   Au 5230   6.528   5.100   3.060
 4691  LAT   Au 5231   6.732   4.896   3.060
 4692  LAT   Au 5232   6.936   4.896   2.856
 4693  LAT   Au 5233   7.140   5.100   2.856
 4694  LAT   Au 5234   6.936   5.100   3.060
 4695  LAT   Au 5235   7.140   4.896   3.060
 4696  LAT   Au 5236   0.000   5.304   2.856
 4697  LAT   Au 5237   0.204   5.508   2.856
 4698  LAT   Au 5238   0.000   5.508   3.060
 4699  LAT   Au 5239   0.204   5.304   3.060
 4700  LAT   Au 5240   0.408   5.304   2.856
 4701  LAT   Au 5241   0.612   5.508   2.856
 4702  LAT   Au 5242   0.408   5.508   3.060
 4703  LAT   Au 5243   0.612   5.304   3.060
 4704  LAT   Au 5244   0.816   5.304   2.856
 4705  LAT   Au 5245   1.020   5.508   2.856
 4706  LAT   Au 5246   0.816   5.508   3.060
 4707  LAT   Au 5247   1.020   5.304   3.060
 4708  LAT   Au 5248   1.224   5.508   3.060
 4709  LAT   Au 5249   5.916   5.508   2.856
 4710  LAT   Au 5250   6.120   5.304   2.856
 4711  LAT   Au 5251   6.324   5.508   2.856
 4712  LAT   Au 5252   6.120   5.508   3.060
 4713  LAT   Au 5253   6.324   5.304   3.060
 4714  LAT   Au 5254   6.528   5.304   2.856
 4715  LAT   Au 5255   6.732   5.508   2.856
 4716  LAT   Au 5256   6.528   5.508   3.060
 4717  LAT   Au 5257   6.732   5.304   3.060
 4718  LAT   Au 5258   6.936   5.304   2.856
 4719  LAT   Au 5259   7.140   5.508   2.856
 4720  LAT   Au 5260   6.936   5.508   3.060
 4721  LAT   Au 5261   7.140   5.304   3.060
 4722  LAT   Au 5262   0.000   5.712   2.856
 4723  LAT   Au 5263   0.204   5.916   2.856
 4724  LAT   Au 5264   0.000   5.916   3.060
 4725  LAT   Au 5265   0.204   5.712   3.060
 4726  LAT   Au 5266   0.408   5.712   2.856
 4727  LAT   Au 5267   0.612   5.916   2.856
 4728  LAT   Au 5268   0.408   5.916   3.060
 4729  LAT   Au 5269   0.612   5.712   3.060
 4730  LAT   Au 5270   0.816   5.712   2.856
 4731  LAT   Au 5271   1.020   5.916   2.856
 4732  LAT   Au 5272   0.816   5.916   3.060
 4733  LAT   Au 5273   1.020   5.712   3.060
 4734  LAT   Au 5274   1.224   5.712   2.856
 4735  LAT   Au 5275   1.428   5.916   2.856
 4736  LAT   Au 5276   1.224   5.916   3.060
 4737  LAT   Au 5277   1.428   5.712   3.060
 4738  LAT   Au 5278   1.632   5.916   3.060
 4739  LAT   Au 5279   5.508   5.916   2.856
 4740  LAT   Au 5280   5.916   5.916   2.856
 4741  LAT   Au 5281   5.712   5.916   3.060
 4742  LAT   Au 5282   5.916   5.712   3.060
 4743  LAT   Au 5283   6.120   5.712   2.856
 4744  LAT   Au 5284   6.324   5.916   2.856
 4745  LAT   Au 5285   6.120   5.916   3.060
 4746  LAT   Au 5286   6.324   5.712   3.060
 4747  LAT   Au 5287   6.528   5.712   2.856
 4748  LAT   Au 5288   6.732   5.916   2.856
 4749  LAT   Au 5289   6.528   5.916   3.060
 4750  LAT   Au 5290   6.732   5.712   3.060
 4751  LAT   Au 5291   6.936   5.712   2.856
 4752  LAT   Au 5292   7.140   5.916   2.856
 4753  LAT   Au 5293   6.936   5.916   3.060
 4754  LAT   Au 5294   7.140   5.712   3.060
 4755  LAT   Au 5295   0.000   6.120   2.856
 4756  LAT   Au 5296   0.204   6.324   2.856
 4757  LAT   Au 5297   0.000   6.324   3.060
 4758  LAT   Au 5298   0.204   6.120   3.060
 4759  LAT   Au 5299   0.408   6.120   2.856
 4760  LAT   Au 5300   0.612   6.324   2.856
 4761  LAT   Au 5301   0.408   6.324   3.060
 4762  LAT   Au 5302   0.612   6.120   3.060
 4763  LAT   Au 5303   0.816   6.120   2.856
 4764  LAT   Au 5304   1.020   6.324   2.856
 4765  LAT   Au 5305   0.816   6.324   3.060
 4766  LAT   Au 5306   1.020   6.120   3.060
 4767  LAT   Au 5307   1.224   6.120   2.856
 4768  LAT   Au 5308   1.428   6.324   2.856
 4769  LAT   Au 5309   1.224   6.324   3.060
 4770  LAT   Au 5310   1.428   6.120   3.060
 4771  LAT   Au 5311   1.632   6.120   2.856
 4772  LAT   Au 5312   1.836   6.324   2.856
 4773  LAT   Au 5313   1.632   6.324   3.060
 4774  LAT   Au 5314   1.836   6.120   3.060
 4775  LAT   Au 5315   2.244   6.324   2.856
 4776  LAT   Au 5316   2.040   6.324   3.060
 4777  LAT   Au 5317   5.100   6.324   2.856
 4778  LAT   Au 5318   4.896   6.324   3.060
 4779  LAT   Au 5319   5.304   6.120   2.856
 4780  LAT   Au 5320   5.508   6.324   2.856
 4781  LAT   Au 5321   5.304   6.324   3.060
 4782  LAT   Au 5322   5.508   6.120   3.060
 4783  LAT   Au 5323   5.712   6.120   2.856
 4784  LAT   Au 5324   5.916   6.324   2.856
 4785  LAT   Au 5325   5.712   6.324   3.060
 4786  LAT   Au 5326   5.916   6.120   3.060
 4787  LAT   Au 5327   6.120   6.120   2.856
 4788  LAT   Au 5328   6.324   6.324   2.856
 4789  LAT   Au 5329   6.120   6.324   3.060
 4790  LAT   Au 5330   6.324   6.120   3.060
 4791  LAT   Au 5331   6.528   6.120   2.856
 4792  LAT   Au 5332   6.732   6.324   2.856
 4793  LAT   Au 5333   6.528   6.324   3.060
 4794  LAT   Au 5334   6.732   6.120   3.060
 4795  LAT   Au 5335   6.936   6.120   2.856
 4796  LAT   Au 5336   7.140   6.324   2.856
 4797  LAT   Au 5337   6.936   6.324   3.060
 4798  LAT   Au 5338   7.140   6.120   3.060
 4799  LAT   Au 5339   0.000   6.528   2.856
 4800  LAT   Au 5340   0.204   6.732   2.856
 4801  LAT   Au 5341   0.000   6.732   3.060
 4802  LAT   Au 5342   0.204   6.528   3.060
 4803  LAT   Au 5343   0.408   6.528   2.856
 4804  LAT   Au 5344   0.612   6.732   2.856
 4805  LAT   Au 5345   0.408   6.732   3.060
 4806  LAT   Au 5346   0.612   6.528   3.060
 4807  LAT   Au 5347   0.816   6.528   2.856
 4808  LAT   Au 5348   1.020   6.732   2.856
 4809  LAT   Au 5349   0.816   6.732   3.060
 4810  LAT   Au 5350   1.020   6.528   3.060
 4811  LAT   Au 5351   1.224   6.528   2.856
 4812  LAT   Au 5352   1.428   6.732   2.856
 4813  LAT   Au 5353   1.224   6.732   3.060
 4814  LAT   Au 5354   1.428   6.528   3.060
 4815  LAT   Au 5355   1.632   6.528   2.856
 4816  LAT   Au 5356   1.836   6.732   2.856
 4817  LAT   Au 5357   1.632   6.732   3.060
 4818  LAT   Au 5358   1.836   6.528   3.060
 4819  LAT   Au 5359   2.040   6.528   2.856
 4820  LAT   Au 5360   2.244   6.732   2.856
 4821  LAT   Au 5361   2.040   6.732   3.060
 4822  LAT   Au 5362   2.244   6.528   3.060
 4823  LAT   Au 5363   2.448   6.528   2.856
 4824  LAT   Au 5364   2.652   6.732   2.856
 4825  LAT   Au 5365   2.448   6.732   3.060
 4826  LAT   Au 5366   2.652   6.528   3.060
 4827  LAT   Au 5367   2.856   6.528   2.856
 4828  LAT   Au 5368   3.060   6.732   2.856
 4829  LAT   Au 5369   2.856   6.732   3.060
 4830  LAT   Au 5370   3.468   6.732   2.856
 4831  LAT   Au 5371   3.264   6.732   3.060
 4832  LAT   Au 5372   3.876   6.732   2.856
 4833  LAT   Au 5373   3.672   6.732   3.060
 4834  LAT   Au 5374   4.284   6.732   2.856
 4835  LAT   Au 5375   4.080   6.732   3.060
 4836  LAT   Au 5376   4.284   6.528   3.060
 4837  LAT   Au 5377   4.488   6.528   2.856
 4838  LAT   Au 5378   4.692   6.732   2.856
 4839  LAT   Au 5379   4.488   6.732   3.060
 4840  LAT   Au 5380   4.692   6.528   3.060
 4841  LAT   Au 5381   4.896   6.528   2.856
 4842  LAT   Au 5382   5.100   6.732   2.856
 4843  LAT   Au 5383   4.896   6.732   3.060
 4844  LAT   Au 5384   5.100   6.528   3.060
 4845  LAT   Au 5385   5.304   6.528   2.856
 4846  LAT   Au 5386   5.508   6.732   2.856
 4847  LAT   Au 5387   5.304   6.732   3.060
 4848  LAT   Au 5388   5.508   6.528   3.060
 4849  LAT   Au 5389   5.712   6.528   2.856
 4850  LAT   Au 5390   5.916   6.732   2.856
 4851  LAT   Au 5391   5.712   6.732   3.060
 4852  LAT   Au 5392   5.916   6.528   3.060
 4853  LAT   Au 5393   6.120   6.528   2.856
 4854  LAT   Au 5394   6.324   6.732   2.856
 4855  LAT   Au 5395   6.120   6.732   3.060
 4856  LAT   Au 5396   6.324   6.528   3.060
 4857  LAT   Au 5397   6.528   6.528   2.856
 4858  LAT   Au 5398   6.732   6.732   2.856
 4859  LAT   Au 5399   6.528   6.732   3.060
 4860  LAT   Au 5400   6.732   6.528   3.060
 4861  LAT   Au 5401   6.936   6.528   2.856
 4862  LAT   Au 5402   7.140   6.732   2.856
 4863  LAT   Au 5403   6.936   6.732   3.060
 4864  LAT   Au 5404   7.140   6.528   3.060
 4865  LAT   Au 5405   0.000   6.936   2.856
 4866  LAT   Au 5406   0.204   7.140   2.856
 4867  LAT   Au 5407   0.000   7.140   3.060
 4868  LAT   Au 5408   0.204   6.936   3.060
 4869  LAT   Au 5409   0.408   6.936   2.856
 4870  LAT   Au 5410   0.612   7.140   2.856
 4871  LAT   Au 5411   0.408   7.140   3.060
 4872  LAT   Au 5412   0.612   6.936   3.060
 4873  LAT   Au 5413   0.816   6.936   2.856
 4874  LAT   Au 5414   1.020   7.140   2.856
 4875  LAT   Au 5415   0.816   7.140   3.060
 4876  LAT   Au 5416   1.020   6.936   3.060
 4877  LAT   Au 5417   1.224   6.936   2.856
 4878  LAT   Au 5418   1.428   7.140   2.856
 4879  LAT   Au 5419   1.224   7.140   3.060
 4880  LAT   Au 5420   1.428   6.936   3.060
 4881  LAT   Au 5421   1.632   6.936   2.856
 4882  LAT   Au 5422   1.836   7.140   2.856
 4883  LAT   Au 5423   1.632   7.140   3.060
 4884  LAT   Au 5424   1.836   6.936   3.060
 4885  LAT   Au 5425   2.040   6.936   2.856
 4886  LAT   Au 5426   2.244   7.140   2.856
 4887  LAT   Au 5427   2.040   7.140   3.060
 4888  LAT   Au 5428   2.244   6.936   3.060
 4889  LAT   Au 5429   2.448   6.936   2.856
 4890  LAT   Au 5430   2.652   7.140   2.856
 4891  LAT   Au 5431   2.448   7.140   3.060
 4892  LAT   Au 5432   2.652   6.936   3.060
 4893  LAT   Au 5433   2.856   6.936   2.856
 4894  LAT   Au 5434   3.060   7.140   2.856
 4895  LAT   Au 5435   2.856   7.140   3.060
 4896  LAT   Au 5436   3.060   6.936   3.060
 4897  LAT   Au 5437   3.264   6.936   2.856
 4898  LAT   Au 5438   3.468   7.140   2.856
 4899  LAT   Au 5439   3.264   7.140   3.060
 4900  LAT   Au 5440   3.468   6.936   3.060
 4901  LAT   Au 5441   3.672   6.936   2.856
 4902  LAT   Au 5442   3.876   7.140   2.856
 4903  LAT   Au 5443   3.672   7.140   3.060
 4904  LAT   Au 5444   3.876   6.936   3.060
 4905  LAT   Au 5445   4.080   6.936   2.856
 4906  LAT   Au 5446   4.284   7.140   2.856
 4907  LAT   Au 5447   4.080   7.140   3.060
 4908  LAT   Au 5448   4.284   6.936   3.060
 4909  LAT   Au 5449   4.488   6.936   2.856
 4910  LAT   Au 5450   4.692   7.140   2.856
 4911  LAT   Au 5451   4.488   7.140   3.060
 4912  LAT   Au 5452   4.692   6.936   3.060
 4913  LAT   Au 5453   4.896   6.936   2.856
 4914  LAT   Au 5454   5.100   7.140   2.856
 4915  LAT   Au 5455   4.896   7.140   3.060
 4916  LAT   Au 5456   5.100   6.936   3.060
 4917  LAT   Au 5457   5.304   6.936   2.856
 4918  LAT   Au 5458   5.508   7.140   2.856
 4919  LAT   Au 5459   5.304   7.140   3.060
 4920  LAT   Au 5460   5.508   6.936   3.060
 4921  LAT   Au 5461   5.712   6.936   2.856
 4922  LAT   Au 5462   5.916   7.140   2.856
 4923  LAT   Au 5463   5.712   7.140   3.060
 4924  LAT   Au 5464   5.916   6.936   3.060
 4925  LAT   Au 5465   6.120   6.936   2.856
 4926  LAT   Au 5466   6.324   7.140   2.856
 4927  LAT   Au 5467   6.120   7.140   3.060
 4928  LAT   Au 5468   6.324   6.936   3.060
 4929  LAT   Au 5469   6.528   6.936   2.856
 4930  LAT   Au 5470   6.732   7.140   2.856
 4931  LAT   Au 5471   6.528   7.140   3.060
 4932  LAT   Au 5472   6.732   6.936   3.060
 4933  LAT   Au 5473   6.936   6.936   2.856
 4934  LAT   Au 5474   7.140   7.140   2.856
 4935  LAT   Au 5475   6.936   7.140   3.060
 4936  LAT   Au 5476   7.140   6.936   3.060
 4937  LAT   Au 5477   0.000   0.000   3.264
 4938  LAT   Au 5478   0.204   0.204   3.264
 4939  LAT   Au 5479   0.000   0.204   3.468
 4940  LAT   Au 5480   0.204   0.000   3.468
 4941  LAT   Au 5481   0.408   0.000   3.264
 4942  LAT   Au 5482   0.612   0.204   3.264
 4943  LAT   Au 5483   0.408   0.204   3.468
 4944  LAT   Au 5484   0.612   0.000   3.468
 4945  LAT   Au 5485   0.816   0.000   3.264
 4946  LAT   Au 5486   1.020   0.204   3.264
 4947  LAT   Au 5487   0.816   0.204   3.468
 4948  LAT   Au 5488   1.020   0.000   3.468
 4949  LAT   Au 5489   1.224   0.000   3.264
 4950  LAT   Au 5490   1.428   0.204   3.264
 4951  LAT   Au 5491   1.224   0.204   3.468
 4952  LAT   Au 5492   1.428   0.000   3.468
 4953  LAT   Au 5493   1.632   0.000   3.264
 4954  LAT   Au 5494   1.836   0.204   3.264
 4955  LAT   Au 5495   1.632   0.204   3.468
 4956  LAT   Au 5496   1.836   0.000   3.468
 4957  LAT   Au 5497   2.040   0.000   3.264
 4958  LAT   Au 5498   2.244   0.204   3.264
 4959  LAT   Au 5499   2.040   0.204   3.468
 4960  LAT   Au 5500   2.244   0.000   3.468
 4961  LAT   Au 5501   2.448   0.000   3.264
 4962  LAT   Au 5502   2.652   0.204   3.264
 4963  LAT   Au 5503   2.448   0.204   3.468
 4964  LAT   Au 5504   2.652   0.000   3.468
 4965  LAT   Au 5505   2.856   0.000   3.264
 4966  LAT   Au 5506   3.060   0.204   3.264
 4967  LAT   Au 5507   2.856   0.204   3.468
 4968  LAT   Au 5508   3.060   0.000   3.468
 4969  LAT   Au 5509   3.264   0.000   3.264
 4970  LAT   Au 5510   3.468   0.204   3.264
 4971  LAT   Au 5511   3.264   0.204   3.468
 4972  LAT   Au 5512   3.468   0.000   3.468
 4973  LAT   Au 5513   3.672   0.000   3.264
 4974  LAT   Au 5514   3.876   0.204   3.264
 4975  LAT   Au 5515   3.672   0.204   3.468
 4976  LAT   Au 5516   3.876   0.000   3.468
 4977  LAT   Au 5517   4.080   0.000   3.264
 4978  LAT   Au 5518   4.284   0.204   3.264
 4979  LAT   Au 5519   4.080   0.204   3.468
 4980  LAT   Au 5520   4.284   0.000   3.468
 4981  LAT   Au 5521   4.488   0.000   3.264
 4982  LAT   Au 5522   4.692   0.204   3.264
 4983  LAT   Au 5523   4.488   0.204   3.468
 4984  LAT   Au 5524   4.692   0.000   3.468
 4985  LAT   Au 5525   4.896   0.000   3.264
 4986  LAT   Au 5526   5.100   0.204   3.264
 4987  LAT   Au 5527   4.896   0.204   3.468
 4988  LAT   Au 5528   5.100   0.000   3.468
 4989  LAT   Au 5529   5.304   0.000   3.264
 4990  LAT   Au 5530   5.508   0.204   3.264
 4991  LAT   Au 5531   5.304   0.204   3.468
 4992  LAT   Au 5532   5.508   0.000   3.468
 4993  LAT   Au 5533   5.712   0.000   3.264
 4994  LAT   Au 5534   5.916   0.204   3.264
 4995  LAT   Au 5535   5.712   0.204   3.468
 4996  LAT   Au 5536   5.916   0.000   3.468
 4997  LAT   Au 5537   6.120   0.000   3.264
 4998  LAT   Au 5538   6.324   0.204   3.264
 4999  LAT   Au 5539   6.120   0.204   3.468
 5000  LAT   Au 5540   6.324   0.000   3.468
 5001  LAT   Au 5541   6.528   0.000   3.264
 5002  LAT   Au 5542   6.732   0.204   3.264
 5003  LAT   Au 5543   6.528   0.204   3.468
 5004  LAT   Au 5544   6.732   0.000   3.468
 5005  LAT   Au 5545   6.936   0.000   3.264
 5006  LAT   Au 5546   7.140   0.204   3.264
 5007  LAT   Au 5547   6.936   0.204   3.468
 5008  LAT   Au 5548   7.140   0.000   3.468
 5009  LAT   Au 5549   0.000   0.408   3.264
 5010  LAT   Au 5550   0.204   0.612   3.264
 5011  LAT   Au 5551   0.000   0.612   3.468
 5012  LAT   Au 5552   0.204   0.408   3.468
 5013  LAT   Au 5553   0.408   0.408   3.264
 5014  LAT   Au 5554   0.612   0.612   3.264
 5015  LAT   Au 5555   0.408   0.612   3.468
 5016  LAT   Au 5556   0.612   0.408   3.468
 5017  LAT   Au 5557   0.816   0.408   3.264
 5018  LAT   Au 5558   1.020   0.612   3.264
 5019  LAT   Au 5559   0.816   0.612   3.468
 5020  LAT   Au 5560   1.020   0.408   3.468
 5021  LAT   Au 5561   1.224   0.408   3.264
 5022  LAT   Au 5562   1.428   0.612   3.264
 5023  LAT   Au 5563   1.224   0.612   3.468
 5024  LAT   Au 5564   1.428   0.408   3.468
 5025  LAT   Au 5565   1.632   0.408   3.264
 5026  LAT   Au 5566   1.836   0.612   3.264
 5027  LAT   Au 5567   1.632   0.612   3.468
 5028  LAT   Au 5568   1.836   0.408   3.468
 5029  LAT   Au 5569   2.040   0.408   3.264
 5030  LAT   Au 5570   2.244   0.612   3.264
 5031  LAT   Au 5571   2.040   0.612   3.468
 5032  LAT   Au 5572   2.244   0.408   3.468
 5033  LAT   Au 5573   2.448   0.408   3.264
 5034  LAT   Au 5574   2.652   0.612   3.264
 5035  LAT   Au 5575   2.448   0.612   3.468
 5036  LAT   Au 5576   2.652   0.408   3.468
 5037  LAT   Au 5577   2.856   0.408   3.264
 5038  LAT   Au 5578   3.060   0.612   3.264
 5039  LAT   Au 5579   2.856   0.612   3.468
 5040  LAT   Au 5580   3.060   0.408   3.468
 5041  LAT   Au 5581   3.264   0.408   3.264
 5042  LAT   Au 5582   3.264   0.612   3.468
 5043  LAT   Au 5583   3.468   0.408   3.468
 5044  LAT   Au 5584   3.672   0.408   3.264
 5045  LAT   Au 5585   3.876   0.408   3.468
 5046  LAT   Au 5586   4.080   0.408   3.264
 5047  LAT   Au 5587   4.284   0.612   3.264
 5048  LAT   Au 5588   4.080   0.612   3.468
 5049  LAT   Au 5589   4.284   0.408   3.468
 5050  LAT   Au 5590   4.488   0.408   3.264
 5051  LAT   Au 5591   4.692   0.612   3.264
 5052  LAT   Au 5592   4.488   0.612   3.468
 5053  LAT   Au 5593   4.692   0.408   3.468
 5054  LAT   Au 5594   4.896   0.408   3.264
 5055  LAT   Au 5595   5.100   0.612   3.264
 5056  LAT   Au 5596   4.896   0.612   3.468
 5057  LAT   Au 5597   5.100   0.408   3.468
 5058  LAT   Au 5598   5.304   0.408   3.264
 5059  LAT   Au 5599   5.508   0.612   3.264
 5060  LAT   Au 5600   5.304   0.612   3.468
 5061  LAT   Au 5601   5.508   0.408   3.468
 5062  LAT   Au 5602   5.712   0.408   3.264
 5063  LAT   Au 5603   5.916   0.612   3.264
 5064  LAT   Au 5604   5.712   0.612   3.468
 5065  LAT   Au 5605   5.916   0.408   3.468
 5066  LAT   Au 5606   6.120   0.408   3.264
 5067  LAT   Au 5607   6.324   0.612   3.264
 5068  LAT   Au 5608   6.120   0.612   3.468
 5069  LAT   Au 5609   6.324   0.408   3.468
 5070  LAT   Au 5610   6.528   0.408   3.264
 5071  LAT   Au 5611   6.732   0.612   3.264
 5072  LAT   Au 5612   6.528   0.612   3.468
 5073  LAT   Au 5613   6.732   0.408   3.468
 5074  LAT   Au 5614   6.936   0.408   3.264
 5075  LAT   Au 5615   7.140   0.612   3.264
 5076  LAT   Au 5616   6.936   0.612   3.468
 5077  LAT   Au 5617   7.140   0.408   3.468
 5078  LAT   Au 5618   0.000   0.816   3.264
 5079  LAT   Au 5619   0.204   1.020   3.264
 5080  LAT   Au 5620   0.000   1.020   3.468
 5081  LAT   Au 5621   0.204   0.816   3.468
 5082  LAT   Au 5622   0.408   0.816   3.264
 5083  LAT   Au 5623   0.612   1.020   3.264
 5084  LAT   Au 5624   0.408   1.020   3.468
 5085  LAT   Au 5625   0.612   0.816   3.468
 5086  LAT   Au 5626   0.816   0.816   3.264
 5087  LAT   Au 5627   1.020   1.020   3.264
 5088  LAT   Au 5628   0.816   1.020   3.468
 5089  LAT   Au 5629   1.020   0.816   3.468
 5090  LAT   Au 5630   1.224   0.816   3.264
 5091  LAT   Au 5631   1.428   1.020   3.264
 5092  LAT   Au 5632   1.224   1.020   3.468
 5093  LAT   Au 5633   1.428   0.816   3.468
 5094  LAT   Au 5634   1.632   0.816   3.264
 5095  LAT   Au 5635   1.836   1.020   3.264
 5096  LAT   Au 5636   1.632   1.020   3.468
 5097  LAT   Au 5637   1.836   0.816   3.468
 5098  LAT   Au 5638   2.040   0.816   3.264
 5099  LAT   Au 5639   2.040   1.020   3.468
 5100  LAT   Au 5640   2.244   0.816   3.468
 5101  LAT   Au 5641   2.448   0.816   3.264
 5102  LAT   Au 5642   4.896   0.816   3.264
 5103  LAT   Au 5643   5.100   0.816   3.468
 5104  LAT   Au 5644   5.304   0.816   3.264
 5105  LAT   Au 5645   5.508   1.020   3.264
 5106  LAT   Au 5646   5.304   1.020   3.468
 5107  LAT   Au 5647   5.508   0.816   3.468
 5108  LAT   Au 5648   5.712   0.816   3.264
 5109  LAT   Au 5649   5.916   1.020   3.264
 5110  LAT   Au 5650   5.712   1.020   3.468
 5111  LAT   Au 5651   5.916   0.816   3.468
 5112  LAT   Au 5652   6.120   0.816   3.264
 5113  LAT   Au 5653   6.324   1.020   3.264
 5114  LAT   Au 5654   6.120   1.020   3.468
 5115  LAT   Au 5655   6.324   0.816   3.468
 5116  LAT   Au 5656   6.528   0.816   3.264
 5117  LAT   Au 5657   6.732   1.020   3.264
 5118  LAT   Au 5658   6.528   1.020   3.468
 5119  LAT   Au 5659   6.732   0.816   3.468
 5120  LAT   Au 5660   6.936   0.816   3.264
 5121  LAT   Au 5661   7.140   1.020   3.264
 5122  LAT   Au 5662   6.936   1.020   3.468
 5123  LAT   Au 5663   7.140   0.816   3.468
 5124  LAT   Au 5664   0.000   1.224   3.264
 5125  LAT   Au 5665   0.204   1.428   3.264
 5126  LAT   Au 5666   0.000   1.428   3.468
 5127  LAT   Au 5667   0.204   1.224   3.468
 5128  LAT   Au 5668   0.408   1.224   3.264
 5129  LAT   Au 5669   0.612   1.428   3.264
 5130  LAT   Au 5670   0.408   1.428   3.468
 5131  LAT   Au 5671   0.612   1.224   3.468
 5132  LAT   Au 5672   0.816   1.224   3.264
 5133  LAT   Au 5673   1.020   1.428   3.264
 5134  LAT   Au 5674   0.816   1.428   3.468
 5135  LAT   Au 5675   1.020   1.224   3.468
 5136  LAT   Au 5676   1.224   1.224   3.264
 5137  LAT   Au 5677   1.428   1.428   3.264
 5138  LAT   Au 5678   1.224   1.428   3.468
 5139  LAT   Au 5679   1.428   1.224   3.468
 5140  LAT   Au 5680   1.632   1.224   3.264
 5141  LAT   Au 5681   5.508   1.224   3.468
 5142  LAT   Au 5682   5.712   1.224   3.264
 5143  LAT   Au 5683   5.916   1.428   3.264
 5144  LAT   Au 5684   5.712   1.428   3.468
 5145  LAT   Au 5685   5.916   1.224   3.468
 5146  LAT   Au 5686   6.120   1.224   3.264
 5147  LAT   Au 5687   6.324   1.428   3.264
 5148  LAT   Au 5688   6.120   1.428   3.468
 5149  LAT   Au 5689   6.324   1.224   3.468
 5150  LAT   Au 5690   6.528   1.224   3.264
 5151  LAT   Au 5691   6.732   1.428   3.264
 5152  LAT   Au 5692   6.528   1.428   3.468
 5153  LAT   Au 5693   6.732   1.224   3.468
 5154  LAT   Au 5694   6.936   1.224   3.264
 5155  LAT   Au 5695   7.140   1.428   3.264
 5156  LAT   Au 5696   6.936   1.428   3.468
 5157  LAT   Au 5697   7.140   1.224   3.468
 5158  LAT   Au 5698   0.000   1.632   3.264
 5159  LAT   Au 5699   0.204   1.836   3.264
 5160  LAT   Au 5700   0.000   1.836   3.468
 5161  LAT   Au 5701   0.204   1.632   3.468
 5162  LAT   Au 5702   0.408   1.632   3.264
 5163  LAT   Au 5703   0.612   1.836   3.264
 5164  LAT   Au 5704   0.408   1.836   3.468
 5165  LAT   Au 5705   0.612   1.632   3.468
 5166  LAT   Au 5706   0.816   1.632   3.264
 5167  LAT   Au 5707   1.020   1.836   3.264
 5168  LAT   Au 5708   0.816   1.836   3.468
 5169  LAT   Au 5709   1.020   1.632   3.468
 5170  LAT   Au 5710   1.224   1.632   3.264
 5171  LAT   Au 5711   5.916   1.632   3.468
 5172  LAT   Au 5712   6.120   1.632   3.264
 5173  LAT   Au 5713   6.324   1.836   3.264
 5174  LAT   Au 5714   6.120   1.836   3.468
 5175  LAT   Au 5715   6.324   1.632   3.468
 5176  LAT   Au 5716   6.528   1.632   3.264
 5177  LAT   Au 5717   6.732   1.836   3.264
 5178  LAT   Au 5718   6.528   1.836   3.468
 5179  LAT   Au 5719   6.732   1.632   3.468
 5180  LAT   Au 5720   6.936   1.632   3.264
 5181  LAT   Au 5721   7.140   1.836   3.264
 5182  LAT   Au 5722   6.936   1.836   3.468
 5183  LAT   Au 5723   7.140   1.632   3.468
 5184  LAT   Au 5724   0.000   2.040   3.264
 5185  LAT   Au 5725   0.204   2.244   3.264
 5186  LAT   Au 5726   0.000   2.244   3.468
 5187  LAT   Au 5727   0.204   2.040   3.468
 5188  LAT   Au 5728   0.408   2.040   3.264
 5189  LAT   Au 5729   0.612   2.244   3.264
 5190  LAT   Au 5730   0.408   2.244   3.468
 5191  LAT   Au 5731   0.612   2.040   3.468
 5192  LAT   Au 5732   0.816   2.040   3.264
 5193  LAT   Au 5733   0.816   2.244   3.468
 5194  LAT   Au 5734   1.020   2.040   3.468
 5195  LAT   Au 5735   6.324   2.244   3.264
 5196  LAT   Au 5736   6.324   2.040   3.468
 5197  LAT   Au 5737   6.528   2.040   3.264
 5198  LAT   Au 5738   6.732   2.244   3.264
 5199  LAT   Au 5739   6.528   2.244   3.468
 5200  LAT   Au 5740   6.732   2.040   3.468
 5201  LAT   Au 5741   6.936   2.040   3.264
 5202  LAT   Au 5742   7.140   2.244   3.264
 5203  LAT   Au 5743   6.936   2.244   3.468
 5204  LAT   Au 5744   7.140   2.040   3.468
 5205  LAT   Au 5745   0.000   2.448   3.264
 5206  LAT   Au 5746   0.204   2.652   3.264
 5207  LAT   Au 5747   0.000   2.652   3.468
 5208  LAT   Au 5748   0.204   2.448   3.468
 5209  LAT   Au 5749   0.408   2.448   3.264
 5210  LAT   Au 5750   0.612   2.652   3.264
 5211  LAT   Au 5751   0.408   2.652   3.468
 5212  LAT   Au 5752   0.612   2.448   3.468
 5213  LAT   Au 5753   0.816   2.448   3.264
 5214  LAT   Au 5754   6.528   2.448   3.264
 5215  LAT   Au 5755   6.732   2.652   3.264
 5216  LAT   Au 5756   6.528   2.652   3.468
 5217  LAT   Au 5757   6.732   2.448   3.468
 5218  LAT   Au 5758   6.936   2.448   3.264
 5219  LAT   Au 5759   7.140   2.652   3.264
 5220  LAT   Au 5760   6.936   2.652   3.468
 5221  LAT   Au 5761   7.140   2.448   3.468
 5222  LAT   Au 5762   0.000   2.856   3.264
 5223  LAT   Au 5763   0.204   3.060   3.264
 5224  LAT   Au 5764   0.000   3.060   3.468
 5225  LAT   Au 5765   0.204   2.856   3.468
 5226  LAT   Au 5766   0.408   2.856   3.264
 5227  LAT   Au 5767   0.612   3.060   3.264
 5228  LAT   Au 5768   0.408   3.060   3.468
 5229  LAT   Au 5769   0.612   2.856   3.468
 5230  LAT   Au 5770   6.528   2.856   3.264
 5231  LAT   Au 5771   6.732   3.060   3.264
 5232  LAT   Au 5772   6.732   2.856   3.468
 5233  LAT   Au 5773   6.936   2.856   3.264
 5234  LAT   Au 5774   7.140   3.060   3.264
 5235  LAT   Au 5775   6.936   3.060   3.468
 5236  LAT   Au 5776   7.140   2.856   3.468
 5237  LAT   Au 5777   0.000   3.264   3.264
 5238  LAT   Au 5778   0.204   3.468   3.264
 5239  LAT   Au 5779   0.000   3.468   3.468
 5240  LAT   Au 5780   0.204   3.264   3.468
 5241  LAT   Au 5781   0.408   3.264   3.264
 5242  LAT   Au 5782   0.408   3.468   3.468
 5243  LAT   Au 5783   0.612   3.264   3.468
 5244  LAT   Au 5784   6.732   3.468   3.264
 5245  LAT   Au 5785   6.732   3.264   3.468
 5246  LAT   Au 5786   6.936   3.264   3.264
 5247  LAT   Au 5787   7.140   3.468   3.264
 5248  LAT   Au 5788   6.936   3.468   3.468
 5249  LAT   Au 5789   7.140   3.264   3.468
 5250  LAT   Au 5790   0.000   3.672   3.264
 5251  LAT   Au 5791   0.204   3.876   3.264
 5252  LAT   Au 5792   0.000   3.876   3.468
 5253  LAT   Au 5793   0.204   3.672   3.468
 5254  LAT   Au 5794   0.408   3.672   3.264
 5255  LAT   Au 5795   0.408   3.876   3.468
 5256  LAT   Au 5796   6.732   3.876   3.264
 5257  LAT   Au 5797   6.732   3.672   3.468
 5258  LAT   Au 5798   6.936   3.672   3.264
 5259  LAT   Au 5799   7.140   3.876   3.264
 5260  LAT   Au 5800   6.936   3.876   3.468
 5261  LAT   Au 5801   7.140   3.672   3.468
 5262  LAT   Au 5802   0.000   4.080   3.264
 5263  LAT   Au 5803   0.204   4.284   3.264
 5264  LAT   Au 5804   0.000   4.284   3.468
 5265  LAT   Au 5805   0.204   4.080   3.468
 5266  LAT   Au 5806   0.408   4.080   3.264
 5267  LAT   Au 5807   0.612   4.284   3.264
 5268  LAT   Au 5808   0.408   4.284   3.468
 5269  LAT   Au 5809   0.612   4.080   3.468
 5270  LAT   Au 5810   6.732   4.284   3.264
 5271  LAT   Au 5811   6.528   4.284   3.468
 5272  LAT   Au 5812   6.732   4.080   3.468
 5273  LAT   Au 5813   6.936   4.080   3.264
 5274  LAT   Au 5814   7.140   4.284   3.264
 5275  LAT   Au 5815   6.936   4.284   3.468
 5276  LAT   Au 5816   7.140   4.080   3.468
 5277  LAT   Au 5817   0.000   4.488   3.264
 5278  LAT   Au 5818   0.204   4.692   3.264
 5279  LAT   Au 5819   0.000   4.692   3.468
 5280  LAT   Au 5820   0.204   4.488   3.468
 5281  LAT   Au 5821   0.408   4.488   3.264
 5282  LAT   Au 5822   0.612   4.692   3.264
 5283  LAT   Au 5823   0.408   4.692   3.468
 5284  LAT   Au 5824   0.612   4.488   3.468
 5285  LAT   Au 5825   6.528   4.488   3.264
 5286  LAT   Au 5826   6.732   4.692   3.264
 5287  LAT   Au 5827   6.528   4.692   3.468
 5288  LAT   Au 5828   6.732   4.488   3.468
 5289  LAT   Au 5829   6.936   4.488   3.264
 5290  LAT   Au 5830   7.140   4.692   3.264
 5291  LAT   Au 5831   6.936   4.692   3.468
 5292  LAT   Au 5832   7.140   4.488   3.468
 5293  LAT   Au 5833   0.000   4.896   3.264
 5294  LAT   Au 5834   0.204   5.100   3.264
 5295  LAT   Au 5835   0.000   5.100   3.468
 5296  LAT   Au 5836   0.204   4.896   3.468
 5297  LAT   Au 5837   0.408   4.896   3.264
 5298  LAT   Au 5838   0.612   5.100   3.264
 5299  LAT   Au 5839   0.408   5.100   3.468
 5300  LAT   Au 5840   0.612   4.896   3.468
 5301  LAT   Au 5841   0.816   4.896   3.264
 5302  LAT   Au 5842   0.816   5.100   3.468
 5303  LAT   Au 5843   6.324   5.100   3.264
 5304  LAT   Au 5844   6.324   4.896   3.468
 5305  LAT   Au 5845   6.528   4.896   3.264
 5306  LAT   Au 5846   6.732   5.100   3.264
 5307  LAT   Au 5847   6.528   5.100   3.468
 5308  LAT   Au 5848   6.732   4.896   3.468
 5309  LAT   Au 5849   6.936   4.896   3.264
 5310  LAT   Au 5850   7.140   5.100   3.264
 5311  LAT   Au 5851   6.936   5.100   3.468
 5312  LAT   Au 5852   7.140   4.896   3.468
 5313  LAT   Au 5853   0.000   5.304   3.264
 5314  LAT   Au 5854   0.204   5.508   3.264
 5315  LAT   Au 5855   0.000   5.508   3.468
 5316  LAT   Au 5856   0.204   5.304   3.468
 5317  LAT   Au 5857   0.408   5.304   3.264
 5318  LAT   Au 5858   0.612   5.508   3.264
 5319  LAT   Au 5859   0.408   5.508   3.468
 5320  LAT   Au 5860   0.612   5.304   3.468
 5321  LAT   Au 5861   0.816   5.304   3.264
 5322  LAT   Au 5862   1.020   5.508   3.264
 5323  LAT   Au 5863   0.816   5.508   3.468
 5324  LAT   Au 5864   1.020   5.304   3.468
 5325  LAT   Au 5865   1.224   5.508   3.468
 5326  LAT   Au 5866   5.916   5.508   3.264
 5327  LAT   Au 5867   6.120   5.304   3.264
 5328  LAT   Au 5868   6.324   5.508   3.264
 5329  LAT   Au 5869   6.120   5.508   3.468
 5330  LAT   Au 5870   6.324   5.304   3.468
 5331  LAT   Au 5871   6.528   5.304   3.264
 5332  LAT   Au 5872   6.732   5.508   3.264
 5333  LAT   Au 5873   6.528   5.508   3.468
 5334  LAT   Au 5874   6.732   5.304   3.468
 5335  LAT   Au 5875   6.936   5.304   3.264
 5336  LAT   Au 5876   7.140   5.508   3.264
 5337  LAT   Au 5877   6.936   5.508   3.468
 5338  LAT   Au 5878   7.140   5.304   3.468
 5339  LAT   Au 5879   0.000   5.712   3.264
 5340  LAT   Au 5880   0.204   5.916   3.264
 5341  LAT   Au 5881   0.000   5.916   3.468
 5342  LAT   Au 5882   0.204   5.712   3.468
 5343  LAT   Au 5883   0.408   5.712   3.264
 5344  LAT   Au 5884   0.612   5.916   3.264
 5345  LAT   Au 5885   0.408   5.916   3.468
 5346  LAT   Au 5886   0.612   5.712   3.468
 5347  LAT   Au 5887   0.816   5.712   3.264
 5348  LAT   Au 5888   1.020   5.916   3.264
 5349  LAT   Au 5889   0.816   5.916   3.468
 5350  LAT   Au 5890   1.020   5.712   3.468
 5351  LAT   Au 5891   1.224   5.712   3.264
 5352  LAT   Au 5892   1.428   5.916   3.264
 5353  LAT   Au 5893   1.224   5.916   3.468
 5354  LAT   Au 5894   1.428   5.712   3.468
 5355  LAT   Au 5895   1.632   5.916   3.468
 5356  LAT   Au 5896   5.508   5.916   3.264
 5357  LAT   Au 5897   5.916   5.916   3.264
 5358  LAT   Au 5898   5.712   5.916   3.468
 5359  LAT   Au 5899   5.916   5.712   3.468
 5360  LAT   Au 5900   6.120   5.712   3.264
 5361  LAT   Au 5901   6.324   5.916   3.264
 5362  LAT   Au 5902   6.120   5.916   3.468
 5363  LAT   Au 5903   6.324   5.712   3.468
 5364  LAT   Au 5904   6.528   5.712   3.264
 5365  LAT   Au 5905   6.732   5.916   3.264
 5366  LAT   Au 5906   6.528   5.916   3.468
 5367  LAT   Au 5907   6.732   5.712   3.468
 5368  LAT   Au 5908   6.936   5.712   3.264
 5369  LAT   Au 5909   7.140   5.916   3.264
 5370  LAT   Au 5910   6.936   5.916   3.468
 5371  LAT   Au 5911   7.140   5.712   3.468
 5372  LAT   Au 5912   0.000   6.120   3.264
 5373  LAT   Au 5913   0.204   6.324   3.264
 5374  LAT   Au 5914   0.000   6.324   3.468
 5375  LAT   Au 5915   0.204   6.120   3.468
 5376  LAT   Au 5916   0.408   6.120   3.264
 5377  LAT   Au 5917   0.612   6.324   3.264
 5378  LAT   Au 5918   0.408   6.324   3.468
 5379  LAT   Au 5919   0.612   6.120   3.468
 5380  LAT   Au 5920   0.816   6.120   3.264
 5381  LAT   Au 5921   1.020   6.324   3.264
 5382  LAT   Au 5922   0.816   6.324   3.468
 5383  LAT   Au 5923   1.020   6.120   3.468
 5384  LAT   Au 5924   1.224   6.120   3.264
 5385  LAT   Au 5925   1.428   6.324   3.264
 5386  LAT   Au 5926   1.224   6.324   3.468
 5387  LAT   Au 5927   1.428   6.120   3.468
 5388  LAT   Au 5928   1.632   6.120   3.264
 5389  LAT   Au 5929   1.836   6.324   3.264
 5390  LAT   Au 5930   1.632   6.324   3.468
 5391  LAT   Au 5931   1.836   6.120   3.468
 5392  LAT   Au 5932   2.244   6.324   3.264
 5393  LAT   Au 5933   2.040   6.324   3.468
 5394  LAT   Au 5934   5.100   6.324   3.264
 5395  LAT   Au 5935   4.896   6.324   3.468
 5396  LAT   Au 5936   5.304   6.120   3.264
 5397  LAT   Au 5937   5.508   6.324   3.264
 5398  LAT   Au 5938   5.304   6.324   3.468
 5399  LAT   Au 5939   5.508   6.120   3.468
 5400  LAT   Au 5940   5.712   6.120   3.264
 5401  LAT   Au 5941   5.916   6.324   3.264
 5402  LAT   Au 5942   5.712   6.324   3.468
 5403  LAT   Au 5943   5.916   6.120   3.468
 5404  LAT   Au 5944   6.120   6.120   3.264
 5405  LAT   Au 5945   6.324   6.324   3.264
 5406  LAT   Au 5946   6.120   6.324   3.468
 5407  LAT   Au 5947   6.324   6.120   3.468
 5408  LAT   Au 5948   6.528   6.120   3.264
 5409  LAT   Au 5949   6.732   6.324   3.264
 5410  LAT   Au 5950   6.528   6.324   3.468
 5411  LAT   Au 5951   6.732   6.120   3.468
 5412  LAT   Au 5952   6.936   6.120   3.264
 5413  LAT   Au 5953   7.140   6.324   3.264
 5414  LAT   Au 5954   6.936   6.324   3.468
 5415  LAT   Au 5955   7.140   6.120   3.468
 5416  LAT   Au 5956   0.000   6.528   3.264
 5417  LAT   Au 5957   0.204   6.732   3.264
 5418  LAT   Au 5958   0.000   6.732   3.468
 5419  LAT   Au 5959   0.204   6.528   3.468
 5420  LAT   Au 5960   0.408   6.528   3.264
 5421  LAT   Au 5961   0.612   6.732   3.264
 5422  LAT   Au 5962   0.408   6.732   3.468
 5423  LAT   Au 5963   0.612   6.528   3.468
 5424  LAT   Au 5964   0.816   6.528   3.264
 5425  LAT   Au 5965   1.020   6.732   3.264
 5426  LAT   Au 5966   0.816   6.732   3.468
 5427  LAT   Au 5967   1.020   6.528   3.468
 5428  LAT   Au 5968   1.224   6.528   3.264
 5429  LAT   Au 5969   1.428   6.732   3.264
 5430  LAT   Au 5970   1.224   6.732   3.468
 5431  LAT   Au 5971   1.428   6.528   3.468
 5432  LAT   Au 5972   1.632   6.528   3.264
 5433  LAT   Au 5973   1.836   6.732   3.264
 5434  LAT   Au 5974   1.632   6.732   3.468
 5435  LAT   Au 5975   1.836   6.528   3.468
 5436  LAT   Au 5976   2.040   6.528   3.264
 5437  LAT   Au 5977   2.244   6.732   3.264
 5438  LAT   Au 5978   2.040   6.732   3.468
 5439  LAT   Au 5979   2.244   6.528   3.468
 5440  LAT   Au 5980   2.448   6.528   3.264
 5441  LAT   Au 5981   2.652   6.732   3.264
 5442  LAT   Au 5982   2.448   6.732   3.468
 5443  LAT   Au 5983   2.652   6.528   3.468
 5444  LAT   Au 5984   2.856   6.528   3.264
 5445  LAT   Au 5985   3.060   6.732   3.264
 5446  LAT   Au 5986   2.856   6.732   3.468
 5447  LAT   Au 5987   3.468   6.732   3.264
 5448  LAT   Au 5988   3.264   6.732   3.468
 5449  LAT   Au 5989   3.876   6.732   3.264
 5450  LAT   Au 5990   3.672   6.732   3.468
 5451  LAT   Au 5991   4.284   6.732   3.264
 5452  LAT   Au 5992   4.080   6.732   3.468
 5453  LAT   Au 5993   4.284   6.528   3.468
 5454  LAT   Au 5994   4.488   6.528   3.264
 5455  LAT   Au 5995   4.692   6.732   3.264
 5456  LAT   Au 5996   4.488   6.732   3.468
 5457  LAT   Au 5997   4.692   6.528   3.468
 5458  LAT   Au 5998   4.896   6.528   3.264
 5459  LAT   Au 5999   5.100   6.732   3.264
 5460  LAT   Au 6000   4.896   6.732   3.468
 5461  LAT   Au 6001   5.100   6.528   3.468
 5462  LAT   Au 6002   5.304   6.528   3.264
 5463  LAT   Au 6003   5.508   6.732   3.264
 5464  LAT   Au 6004   5.304   6.732   3.468
 5465  LAT   Au 6005   5.508   6.528   3.468
 5466  LAT   Au 6006   5.712   6.528   3.264
 5467  LAT   Au 6007   5.916   6.732   3.264
 5468  LAT   Au 6008   5.712   6.732   3.468
 5469  LAT   Au 6009   5.916   6.528   3.468
 5470  LAT   Au 6010   6.120   6.528   3.264
 5471  LAT   Au 6011   6.324   6.732   3.264
 5472  LAT   Au 6012   6.120   6.732   3.468
 5473  LAT   Au 6013   6.324   6.528   3.468
 5474  LAT   Au 6014   6.528   6.528   3.264
 5475  LAT   Au 6015   6.732   6.732   3.264
 5476  LAT   Au 6016   6.528   6.732   3.468
 5477  LAT   Au 6017   6.732   6.528   3.468
 5478  LAT   Au 6018   6.936   6.528   3.264
 5479  LAT   Au 6019   7.140   6.732   3.264
 5480  LAT   Au 6020   6.936   6.732   3.468
 5481  LAT   Au 6021   7.140   6.528   3.468
 5482  LAT   Au 6022   0.000   6.936   3.264
 5483  LAT   Au 6023   0.204   7.140   3.264
 5484  LAT   Au 6024   0.000   7.140   3.468
 5485  LAT   Au 6025   0.204   6.936   3.468
 5486  LAT   Au 6026   0.408   6.936   3.264
 5487  LAT   Au 6027   0.612   7.140   3.264
 5488  LAT   Au 6028   0.408   7.140   3.468
 5489  LAT   Au 6029   0.612   6.936   3.468
 5490  LAT   Au 6030   0.816   6.936   3.264
 5491  LAT   Au 6031   1.020   7.140   3.264
 5492  LAT   Au 6032   0.816   7.140   3.468
 5493  LAT   Au 6033   1.020   6.936   3.468
 5494  LAT   Au 6034   1.224   6.936   3.264
 5495  LAT   Au 6035   1.428   7.140   3.264
 5496  LAT   Au 6036   1.224   7.140   3.468
 5497  LAT   Au 6037   1.428   6.936   3.468
 5498  LAT   Au 6038   1.632   6.936   3.264
 5499  LAT   Au 6039   1.836   7.140   3.264
 5500  LAT   Au 6040   1.632   7.140   3.468
 5501  LAT   Au 6041   1.836   6.936   3.468
 5502  LAT   Au 6042   2.040   6.936   3.264
 5503  LAT   Au 6043   2.244   7.140   3.264
 5504  LAT   Au 6044   2.040   7.140   3.468
 5505  LAT   Au 6045   2.244   6.936   3.468
 5506  LAT   Au 6046   2.448   6.936   3.264
 5507  LAT   Au 6047   2.652   7.140   3.264
 5508  LAT   Au 6048   2.448   7.140   3.468
 5509  LAT   Au 6049   2.652   6.936   3.468
 5510  LAT   Au 6050   2.856   6.936   3.264
 5511  LAT   Au 6051   3.060   7.140   3.264
 5512  LAT   Au 6052   2.856   7.140   3.468
 5513  LAT   Au 6053   3.060   6.936   3.468
 5514  LAT   Au 6054   3.264   6.936   3.264
 5515  LAT   Au 6055   3.468   7.140   3.264
 5516  LAT   Au 6056   3.264   7.140   3.468
 5517  LAT   Au 6057   3.468   6.936   3.468
 5518  LAT   Au 6058   3.672   6.936   3.264
 5519  LAT   Au 6059   3.876   7.140   3.264
 5520  LAT   Au 6060   3.672   7.140   3.468
 5521  LAT   Au 6061   3.876   6.936   3.468
 5522  LAT   Au 6062   4.080   6.936   3.264
 5523  LAT   Au 6063   4.284   7.140   3.264
 5524  LAT   Au 6064   4.080   7.140   3.468
 5525  LAT   Au 6065   4.284   6.936   3.468
 5526  LAT   Au 6066   4.488   6.936   3.264
 5527  LAT   Au 6067   4.692   7.140   3.264
 5528  LAT   Au 6068   4.488   7.140   3.468
 5529  LAT   Au 6069   4.692   6.936   3.468
 5530  LAT   Au 6070   4.896   6.936   3.264
 5531  LAT   Au 6071   5.100   7.140   3.264
 5532  LAT   Au 6072   4.896   7.140   3.468
 5533  LAT   Au 6073   5.100   6.936   3.468
 5534  LAT   Au 6074   5.304   6.936   3.264
 5535  LAT   Au 6075   5.508   7.140   3.264
 5536  LAT   Au 6076   5.304   7.140   3.468
 5537  LAT   Au 6077   5.508   6.936   3.468
 5538  LAT   Au 6078   5.712   6.936   3.264
 5539  LAT   Au 6079   5.916   7.140   3.264
 5540  LAT   Au 6080   5.712   7.140   3.468
 5541  LAT   Au 6081   5.916   6.936   3.468
 5542  LAT   Au 6082   6.120   6.936   3.264
 5543  LAT   Au 6083   6.324   7.140   3.264
 5544  LAT   Au 6084   6.120   7.140   3.468
 5545  LAT   Au 6085   6.324   6.936   3.468
 5546  LAT   Au 6086   6.528   6.936   3.264
 5547  LAT   Au 6087   6.732   7.140   3.264
 5548  LAT   Au 6088   6.528   7.140   3.468
 5549  LAT   Au 6089   6.732   6.936   3.468
 5550  LAT   Au 6090   6.936   6.936   3.264
 5551  LAT   Au 6091   7.140   7.140   3.264
 5552  LAT   Au 6092   6.936   7.140   3.468
 5553  LAT   Au 6093   7.140   6.936   3.468
 5554  LAT   Au 6094   0.000   0.000   3.672
 5555  LAT   Au 6095   0.204   0.204   3.672
 5556  LAT   Au 6096   0.000   0.204   3.876
 5557  LAT   Au 6097   0.204   0.000   3.876
 5558  LAT   Au 6098   0.408   0.000   3.672
 5559  LAT   Au 6099   0.612   0.204   3.672
 5560  LAT   Au 6100   0.408   0.204   3.876
 5561  LAT   Au 6101   0.612   0.000   3.876
 5562  LAT   Au 6102   0.816   0.000   3.672
 5563  LAT   Au 6103   1.020   0.204   3.672
 5564  LAT   Au 6104   0.816   0.204   3.876
 5565  LAT   Au 6105   1.020   0.000   3.876
 5566  LAT   Au 6106   1.224   0.000   3.672
 5567  LAT   Au 6107   1.428   0.204   3.672
 5568  LAT   Au 6108   1.224   0.204   3.876
 5569  LAT   Au 6109   1.428   0.000   3.876
 5570  LAT   Au 6110   1.632   0.000   3.672
 5571  LAT   Au 6111   1.836   0.204   3.672
 5572  LAT   Au 6112   1.632   0.204   3.876
 5573  LAT   Au 6113   1.836   0.000   3.876
 5574  LAT   Au 6114   2.040   0.000   3.672
 5575  LAT   Au 6115   2.244   0.204   3.672
 5576  LAT   Au 6116   2.040   0.204   3.876
 5577  LAT   Au 6117   2.244   0.000   3.876
 5578  LAT   Au 6118   2.448   0.000   3.672
 5579  LAT   Au 6119   2.652   0.204   3.672
 5580  LAT   Au 6120   2.448   0.204   3.876
 5581  LAT   Au 6121   2.652   0.000   3.876
 5582  LAT   Au 6122   2.856   0.000   3.672
 5583  LAT   Au 6123   3.060   0.204   3.672
 5584  LAT   Au 6124   2.856   0.204   3.876
 5585  LAT   Au 6125   3.060   0.000   3.876
 5586  LAT   Au 6126   3.264   0.000   3.672
 5587  LAT   Au 6127   3.468   0.204   3.672
 5588  LAT   Au 6128   3.264   0.204   3.876
 5589  LAT   Au 6129   3.468   0.000   3.876
 5590  LAT   Au 6130   3.672   0.000   3.672
 5591  LAT   Au 6131   3.876   0.204   3.672
 5592  LAT   Au 6132   3.672   0.204   3.876
 5593  LAT   Au 6133   3.876   0.000   3.876
 5594  LAT   Au 6134   4.080   0.000   3.672
 5595  LAT   Au 6135   4.284   0.204   3.672
 5596  LAT   Au 6136   4.080   0.204   3.876
 5597  LAT   Au 6137   4.284   0.000   3.876
 5598  LAT   Au 6138   4.488   0.000   3.672
 5599  LAT   Au 6139   4.692   0.204   3.672
 5600  LAT   Au 6140   4.488   0.204   3.876
 5601  LAT   Au 6141   4.692   0.000   3.876
 5602  LAT   Au 6142   4.896   0.000   3.672
 5603  LAT   Au 6143   5.100   0.204   3.672
 5604  LAT   Au 6144   4.896   0.204   3.876
 5605  LAT   Au 6145   5.100   0.000   3.876
 5606  LAT   Au 6146   5.304   0.000   3.672
 5607  LAT   Au 6147   5.508   0.204   3.672
 5608  LAT   Au 6148   5.304   0.204   3.876
 5609  LAT   Au 6149   5.508   0.000   3.876
 5610  LAT   Au 6150   5.712   0.000   3.672
 5611  LAT   Au 6151   5.916   0.204   3.672
 5612  LAT   Au 6152   5.712   0.204   3.876
 5613  LAT   Au 6153   5.916   0.000   3.876
 5614  LAT   Au 6154   6.120   0.000   3.672
 5615  LAT   Au 6155   6.324   0.204   3.672
 5616  LAT   Au 6156   6.120   0.204   3.876
 5617  LAT   Au 6157   6.324   0.000   3.876
 5618  LAT   Au 6158   6.528   0.000   3.672
 5619  LAT   Au 6159   6.732   0.204   3.672
 5620  LAT   Au 6160   6.528   0.204   3.876
 5621  LAT   Au 6161   6.732   0.000   3.876
 5622  LAT   Au 6162   6.936   0.000   3.672
 5623  LAT   Au 6163   7.140   0.204   3.672
 5624  LAT   Au 6164   6.936   0.204   3.876
 5625  LAT   Au 6165   7.140   0.000   3.876
 5626  LAT   Au 6166   0.000   0.408   3.672
 5627  LAT   Au 6167   0.204   0.612   3.672
 5628  LAT   Au 6168   0.000   0.612   3.876
 5629  LAT   Au 6169   0.204   0.408   3.876
 5630  LAT   Au 6170   0.408   0.408   3.672
 5631  LAT   Au 6171   0.612   0.612   3.672
 5632  LAT   Au 6172   0.408   0.612   3.876
 5633  LAT   Au 6173   0.612   0.408   3.876
 5634  LAT   Au 6174   0.816   0.408   3.672
 5635  LAT   Au 6175   1.020   0.612   3.672
 5636  LAT   Au 6176   0.816   0.612   3.876
 5637  LAT   Au 6177   1.020   0.408   3.876
 5638  LAT   Au 6178   1.224   0.408   3.672
 5639  LAT   Au 6179   1.428   0.612   3.672
 5640  LAT   Au 6180   1.224   0.612   3.876
 5641  LAT   Au 6181   1.428   0.408   3.876
 5642  LAT   Au 6182   1.632   0.408   3.672
 5643  LAT   Au 6183   1.836   0.612   3.672
 5644  LAT   Au 6184   1.632   0.612   3.876
 5645  LAT   Au 6185   1.836   0.408   3.876
 5646  LAT   Au 6186   2.040   0.408   3.672
 5647  LAT   Au 6187   2.244   0.612   3.672
 5648  LAT   Au 6188   2.040   0.612   3.876
 5649  LAT   Au 6189   2.244   0.408   3.876
 5650  LAT   Au 6190   2.448   0.408   3.672
 5651  LAT   Au 6191   2.652   0.612   3.672
 5652  LAT   Au 6192   2.448   0.612   3.876
 5653  LAT   Au 6193   2.652   0.408   3.876
 5654  LAT   Au 6194   2.856   0.408   3.672
 5655  LAT   Au 6195   3.060   0.612   3.672
 5656  LAT   Au 6196   2.856   0.612   3.876
 5657  LAT   Au 6197   3.060   0.408   3.876
 5658  LAT   Au 6198   3.264   0.408   3.672
 5659  LAT   Au 6199   3.264   0.612   3.876
 5660  LAT   Au 6200   3.468   0.408   3.876
 5661  LAT   Au 6201   3.672   0.408   3.672
 5662  LAT   Au 6202   3.876   0.408   3.876
 5663  LAT   Au 6203   4.080   0.408   3.672
 5664  LAT   Au 6204   4.284   0.612   3.672
 5665  LAT   Au 6205   4.080   0.612   3.876
 5666  LAT   Au 6206   4.284   0.408   3.876
 5667  LAT   Au 6207   4.488   0.408   3.672
 5668  LAT   Au 6208   4.692   0.612   3.672
 5669  LAT   Au 6209   4.488   0.612   3.876
 5670  LAT   Au 6210   4.692   0.408   3.876
 5671  LAT   Au 6211   4.896   0.408   3.672
 5672  LAT   Au 6212   5.100   0.612   3.672
 5673  LAT   Au 6213   4.896   0.612   3.876
 5674  LAT   Au 6214   5.100   0.408   3.876
 5675  LAT   Au 6215   5.304   0.408   3.672
 5676  LAT   Au 6216   5.508   0.612   3.672
 5677  LAT   Au 6217   5.304   0.612   3.876
 5678  LAT   Au 6218   5.508   0.408   3.876
 5679  LAT   Au 6219   5.712   0.408   3.672
 5680  LAT   Au 6220   5.916   0.612   3.672
 5681  LAT   Au 6221   5.712   0.612   3.876
 5682  LAT   Au 6222   5.916   0.408   3.876
 5683  LAT   Au 6223   6.120   0.408   3.672
 5684  LAT   Au 6224   6.324   0.612   3.672
 5685  LAT   Au 6225   6.120   0.612   3.876
 5686  LAT   Au 6226   6.324   0.408   3.876
 5687  LAT   Au 6227   6.528   0.408   3.672
 5688  LAT   Au 6228   6.732   0.612   3.672
 5689  LAT   Au 6229   6.528   0.612   3.876
 5690  LAT   Au 6230   6.732   0.408   3.876
 5691  LAT   Au 6231   6.936   0.408   3.672
 5692  LAT   Au 6232   7.140   0.612   3.672
 5693  LAT   Au 6233   6.936   0.612   3.876
 5694  LAT   Au 6234   7.140   0.408   3.876
 5695  LAT   Au 6235   0.000   0.816   3.672
 5696  LAT   Au 6236   0.204   1.020   3.672
 5697  LAT   Au 6237   0.000   1.020   3.876
 5698  LAT   Au 6238   0.204   0.816   3.876
 5699  LAT   Au 6239   0.408   0.816   3.672
 5700  LAT   Au 6240   0.612   1.020   3.672
 5701  LAT   Au 6241   0.408   1.020   3.876
 5702  LAT   Au 6242   0.612   0.816   3.876
 5703  LAT   Au 6243   0.816   0.816   3.672
 5704  LAT   Au 6244   1.020   1.020   3.672
 5705  LAT   Au 6245   0.816   1.020   3.876
 5706  LAT   Au 6246   1.020   0.816   3.876
 5707  LAT   Au 6247   1.224   0.816   3.672
 5708  LAT   Au 6248   1.428   1.020   3.672
 5709  LAT   Au 6249   1.224   1.020   3.876
 5710  LAT   Au 6250   1.428   0.816   3.876
 5711  LAT   Au 6251   1.632   0.816   3.672
 5712  LAT   Au 6252   1.836   1.020   3.672
 5713  LAT   Au 6253   1.632   1.020   3.876
 5714  LAT   Au 6254   1.836   0.816   3.876
 5715  LAT   Au 6255   2.040   0.816   3.672
 5716  LAT   Au 6256   2.040   1.020   3.876
 5717  LAT   Au 6257   2.244   0.816   3.876
 5718  LAT   Au 6258   2.448   0.816   3.672
 5719  LAT   Au 6259   4.896   0.816   3.672
 5720  LAT   Au 6260   5.100   0.816   3.876
 5721  LAT   Au 6261   5.304   0.816   3.672
 5722  LAT   Au 6262   5.508   1.020   3.672
 5723  LAT   Au 6263   5.304   1.020   3.876
 5724  LAT   Au 6264   5.508   0.816   3.876
 5725  LAT   Au 6265   5.712   0.816   3.672
 5726  LAT   Au 6266   5.916   1.020   3.672
 5727  LAT   Au 6267   5.712   1.020   3.876
 5728  LAT   Au 6268   5.916   0.816   3.876
 5729  LAT   Au 6269   6.120   0.816   3.672
 5730  LAT   Au 6270   6.324   1.020   3.672
 5731  LAT   Au 6271   6.120   1.020   3.876
 5732  LAT   Au 6272   6.324   0.816   3.876
 5733  LAT   Au 6273   6.528   0.816   3.672
 5734  LAT   Au 6274   6.732   1.020   3.672
 5735  LAT   Au 6275   6.528   1.020   3.876
 5736  LAT   Au 6276   6.732   0.816   3.876
 5737  LAT   Au 6277   6.936   0.816   3.672
 5738  LAT   Au 6278   7.140   1.020   3.672
 5739  LAT   Au 6279   6.936   1.020   3.876
 5740  LAT   Au 6280   7.140   0.816   3.876
 5741  LAT   Au 6281   0.000   1.224   3.672
 5742  LAT   Au 6282   0.204   1.428   3.672
 5743  LAT   Au 6283   0.000   1.428   3.876
 5744  LAT   Au 6284   0.204   1.224   3.876
 5745  LAT   Au 6285   0.408   1.224   3.672
 5746  LAT   Au 6286   0.612   1.428   3.672
 5747  LAT   Au 6287   0.408   1.428   3.876
 5748  LAT   Au 6288   0.612   1.224   3.876
 5749  LAT   Au 6289   0.816   1.224   3.672
 5750  LAT   Au 6290   1.020   1.428   3.672
 5751  LAT   Au 6291   0.816   1.428   3.876
 5752  LAT   Au 6292   1.020   1.224   3.876
 5753  LAT   Au 6293   1.224   1.224   3.672
 5754  LAT   Au 6294   1.428   1.428   3.672
 5755  LAT   Au 6295   1.224   1.428   3.876
 5756  LAT   Au 6296   1.428   1.224   3.876
 5757  LAT   Au 6297   1.632   1.224   3.672
 5758  LAT   Au 6298   5.508   1.224   3.876
 5759  LAT   Au 6299   5.712   1.224   3.672
 5760  LAT   Au 6300   5.916   1.428   3.672
 5761  LAT   Au 6301   5.712   1.428   3.876
 5762  LAT   Au 6302   5.916   1.224   3.876
 5763  LAT   Au 6303   6.120   1.224   3.672
 5764  LAT   Au 6304   6.324   1.428   3.672
 5765  LAT   Au 6305   6.120   1.428   3.876
 5766  LAT   Au 6306   6.324   1.224   3.876
 5767  LAT   Au 6307   6.528   1.224   3.672
 5768  LAT   Au 6308   6.732   1.428   3.672
 5769  LAT   Au 6309   6.528   1.428   3.876
 5770  LAT   Au 6310   6.732   1.224   3.876
 5771  LAT   Au 6311   6.936   1.224   3.672
 5772  LAT   Au 6312   7.140   1.428   3.672
 5773  LAT   Au 6313   6.936   1.428   3.876
 5774  LAT   Au 6314   7.140   1.224   3.876
 5775  LAT   Au 6315   0.000   1.632   3.672
 5776  LAT   Au 6316   0.204   1.836   3.672
 5777  LAT   Au 6317   0.000   1.836   3.876
 5778  LAT   Au 6318   0.204   1.632   3.876
 5779  LAT   Au 6319   0.408   1.632   3.672
 5780  LAT   Au 6320   0.612   1.836   3.672
 5781  LAT   Au 6321   0.408   1.836   3.876
 5782  LAT   Au 6322   0.612   1.632   3.876
 5783  LAT   Au 6323   0.816   1.632   3.672
 5784  LAT   Au 6324   1.020   1.836   3.672
 5785  LAT   Au 6325   0.816   1.836   3.876
 5786  LAT   Au 6326   1.020   1.632   3.876
 5787  LAT   Au 6327   1.224   1.632   3.672
 5788  LAT   Au 6328   5.916   1.632   3.876
 5789  LAT   Au 6329   6.120   1.632   3.672
 5790  LAT   Au 6330   6.324   1.836   3.672
 5791  LAT   Au 6331   6.120   1.836   3.876
 5792  LAT   Au 6332   6.324   1.632   3.876
 5793  LAT   Au 6333   6.528   1.632   3.672
 5794  LAT   Au 6334   6.732   1.836   3.672
 5795  LAT   Au 6335   6.528   1.836   3.876
 5796  LAT   Au 6336   6.732   1.632   3.876
 5797  LAT   Au 6337   6.936   1.632   3.672
 5798  LAT   Au 6338   7.140   1.836   3.672
 5799  LAT   Au 6339   6.936   1.836   3.876
 5800  LAT   Au 6340   7.140   1.632   3.876
 5801  LAT   Au 6341   0.000   2.040   3.672
 5802  LAT   Au 6342   0.204   2.244   3.672
 5803  LAT   Au 6343   0.000   2.244   3.876
 5804  LAT   Au 6344   0.204   2.040   3.876
 5805  LAT   Au 6345   0.408   2.040   3.672
 5806  LAT   Au 6346   0.612   2.244   3.672
 5807  LAT   Au 6347   0.408   2.244   3.876
 5808  LAT   Au 6348   0.612   2.040   3.876
 5809  LAT   Au 6349   0.816   2.040   3.672
 5810  LAT   Au 6350   0.816   2.244   3.876
 5811  LAT   Au 6351   1.020   2.040   3.876
 5812  LAT   Au 6352   6.324   2.244   3.672
 5813  LAT   Au 6353   6.324   2.040   3.876
 5814  LAT   Au 6354   6.528   2.040   3.672
 5815  LAT   Au 6355   6.732   2.244   3.672
 5816  LAT   Au 6356   6.528   2.244   3.876
 5817  LAT   Au 6357   6.732   2.040   3.876
 5818  LAT   Au 6358   6.936   2.040   3.672
 5819  LAT   Au 6359   7.140   2.244   3.672
 5820  LAT   Au 6360   6.936   2.244   3.876
 5821  LAT   Au 6361   7.140   2.040   3.876
 5822  LAT   Au 6362   0.000   2.448   3.672
 5823  LAT   Au 6363   0.204   2.652   3.672
 5824  LAT   Au 6364   0.000   2.652   3.876
 5825  LAT   Au 6365   0.204   2.448   3.876
 5826  LAT   Au 6366   0.408   2.448   3.672
 5827  LAT   Au 6367   0.612   2.652   3.672
 5828  LAT   Au 6368   0.408   2.652   3.876
 5829  LAT   Au 6369   0.612   2.448   3.876
 5830  LAT   Au 6370   0.816   2.448   3.672
 5831  LAT   Au 6371   6.528   2.448   3.672
 5832  LAT   Au 6372   6.732   2.652   3.672
 5833  LAT   Au 6373   6.528   2.652   3.876
 5834  LAT   Au 6374   6.732   2.448   3.876
 5835  LAT   Au 6375   6.936   2.448   3.672
 5836  LAT   Au 6376   7.140   2.652   3.672
 5837  LAT   Au 6377   6.936   2.652   3.876
 5838  LAT   Au 6378   7.140   2.448   3.876
 5839  LAT   Au 6379   0.000   2.856   3.672
 5840  LAT   Au 6380   0.204   3.060   3.672
 5841  LAT   Au 6381   0.000   3.060   3.876
 5842  LAT   Au 6382   0.204   2.856   3.876
 5843  LAT   Au 6383   0.408   2.856   3.672
 5844  LAT   Au 6384   0.612   3.060   3.672
 5845  LAT   Au 6385   0.408   3.060   3.876
 5846  LAT   Au 6386   0.612   2.856   3.876
 5847  LAT   Au 6387   6.528   2.856   3.672
 5848  LAT   Au 6388   6.732   3.060   3.672
 5849  LAT   Au 6389   6.732   2.856   3.876
 5850  LAT   Au 6390   6.936   2.856   3.672
 5851  LAT   Au 6391   7.140   3.060   3.672
 5852  LAT   Au 6392   6.936   3.060   3.876
 5853  LAT   Au 6393   7.140   2.856   3.876
 5854  LAT   Au 6394   0.000   3.264   3.672
 5855  LAT   Au 6395   0.204   3.468   3.672
 5856  LAT   Au 6396   0.000   3.468   3.876
 5857  LAT   Au 6397   0.204   3.264   3.876
 5858  LAT   Au 6398   0.408   3.264   3.672
 5859  LAT   Au 6399   0.408   3.468   3.876
 5860  LAT   Au 6400   0.612   3.264   3.876
 5861  LAT   Au 6401   6.732   3.468   3.672
 5862  LAT   Au 6402   6.732   3.264   3.876
 5863  LAT   Au 6403   6.936   3.264   3.672
 5864  LAT   Au 6404   7.140   3.468   3.672
 5865  LAT   Au 6405   6.936   3.468   3.876
 5866  LAT   Au 6406   7.140   3.264   3.876
 5867  LAT   Au 6407   0.000   3.672   3.672
 5868  LAT   Au 6408   0.204   3.876   3.672
 5869  LAT   Au 6409   0.000   3.876   3.876
 5870  LAT   Au 6410   0.204   3.672   3.876
 5871  LAT   Au 6411   0.408   3.672   3.672
 5872  LAT   Au 6412   0.408   3.876   3.876
 5873  LAT   Au 6413   6.732   3.876   3.672
 5874  LAT   Au 6414   6.732   3.672   3.876
 5875  LAT   Au 6415   6.936   3.672   3.672
 5876  LAT   Au 6416   7.140   3.876   3.672
 5877  LAT   Au 6417   6.936   3.876   3.876
 5878  LAT   Au 6418   7.140   3.672   3.876
 5879  LAT   Au 6419   0.000   4.080   3.672
 5880  LAT   Au 6420   0.204   4.284   3.672
 5881  LAT   Au 6421   0.000   4.284   3.876
 5882  LAT   Au 6422   0.204   4.080   3.876
 5883  LAT   Au 6423   0.408   4.080   3.672
 5884  LAT   Au 6424   0.612   4.284   3.672
 5885  LAT   Au 6425   0.408   4.284   3.876
 5886  LAT   Au 6426   0.612   4.080   3.876
 5887  LAT   Au 6427   6.732   4.284   3.672
 5888  LAT   Au 6428   6.528   4.284   3.876
 5889  LAT   Au 6429   6.732   4.080   3.876
 5890  LAT   Au 6430   6.936   4.080   3.672
 5891  LAT   Au 6431   7.140   4.284   3.672
 5892  LAT   Au 6432   6.936   4.284   3.876
 5893  LAT   Au 6433   7.140   4.080   3.876
 5894  LAT   Au 6434   0.000   4.488   3.672
 5895  LAT   Au 6435   0.204   4.692   3.672
 5896  LAT   Au 6436   0.000   4.692   3.876
 5897  LAT   Au 6437   0.204   4.488   3.876
 5898  LAT   Au 6438   0.408   4.488   3.672
 5899  LAT   Au 6439   0.612   4.692   3.672
 5900  LAT   Au 6440   0.408   4.692   3.876
 5901  LAT   Au 6441   0.612   4.488   3.876
 5902  LAT   Au 6442   6.528   4.488   3.672
 5903  LAT   Au 6443   6.732   4.692   3.672
 5904  LAT   Au 6444   6.528   4.692   3.876
 5905  LAT   Au 6445   6.732   4.488   3.876
 5906  LAT   Au 6446   6.936   4.488   3.672
 5907  LAT   Au 6447   7.140   4.692   3.672
 5908  LAT   Au 6448   6.936   4.692   3.876
 5909  LAT   Au 6449   7.140   4.488   3.876
 5910  LAT   Au 6450   0.000   4.896   3.672
 5911  LAT   Au 6451   0.204   5.100   3.672
 5912  LAT   Au 6452   0.000   5.100   3.876
 5913  LAT   Au 6453   0.204   4.896   3.876
 5914  LAT   Au 6454   0.408   4.896   3.672
 5915  LAT   Au 6455   0.612   5.100   3.672
 5916  LAT   Au 6456   0.408   5.100   3.876
 5917  LAT   Au 6457   0.612   4.896   3.876
 5918  LAT   Au 6458   0.816   4.896   3.672
 5919  LAT   Au 6459   0.816   5.100   3.876
 5920  LAT   Au 6460   6.324   5.100   3.672
 5921  LAT   Au 6461   6.324   4.896   3.876
 5922  LAT   Au 6462   6.528   4.896   3.672
 5923  LAT   Au 6463   6.732   5.100   3.672
 5924  LAT   Au 6464   6.528   5.100   3.876
 5925  LAT   Au 6465   6.732   4.896   3.876
 5926  LAT   Au 6466   6.936   4.896   3.672
 5927  LAT   Au 6467   7.140   5.100   3.672
 5928  LAT   Au 6468   6.936   5.100   3.876
 5929  LAT   Au 6469   7.140   4.896   3.876
 5930  LAT   Au 6470   0.000   5.304   3.672
 5931  LAT   Au 6471   0.204   5.508   3.672
 5932  LAT   Au 6472   0.000   5.508   3.876
 5933  LAT   Au 6473   0.204   5.304   3.876
 5934  LAT   Au 6474   0.408   5.304   3.672
 5935  LAT   Au 6475   0.612   5.508   3.672
 5936  LAT   Au 6476   0.408   5.508   3.876
 5937  LAT   Au 6477   0.612   5.304   3.876
 5938  LAT   Au 6478   0.816   5.304   3.672
 5939  LAT   Au 6479   1.020   5.508   3.672
 5940  LAT   Au 6480   0.816   5.508   3.876
 5941  LAT   Au 6481   1.020   5.304   3.876
 5942  LAT   Au 6482   1.224   5.508   3.876
 5943  LAT   Au 6483   5.916   5.508   3.672
 5944  LAT   Au 6484   6.120   5.304   3.672
 5945  LAT   Au 6485   6.324   5.508   3.672
 5946  LAT   Au 6486   6.120   5.508   3.876
 5947  LAT   Au 6487   6.324   5.304   3.876
 5948  LAT   Au 6488   6.528   5.304   3.672
 5949  LAT   Au 6489   6.732   5.508   3.672
 5950  LAT   Au 6490   6.528   5.508   3.876
 5951  LAT   Au 6491   6.732   5.304   3.876
 5952  LAT   Au 6492   6.936   5.304   3.672
 5953  LAT   Au 6493   7.140   5.508   3.672
 5954  LAT   Au 6494   6.936   5.508   3.876
 5955  LAT   Au 6495   7.140   5.304   3.876
 5956  LAT   Au 6496   0.000   5.712   3.672
 5957  LAT   Au 6497   0.204   5.916   3.672
 5958  LAT   Au 6498   0.000   5.916   3.876
 5959  LAT   Au 6499   0.204   5.712   3.876
 5960  LAT   Au 6500   0.408   5.712   3.672
 5961  LAT   Au 6501   0.612   5.916   3.672
 5962  LAT   Au 6502   0.408   5.916   3.876
 5963  LAT   Au 6503   0.612   5.712   3.876
 5964  LAT   Au 6504   0.816   5.712   3.672
 5965  LAT   Au 6505   1.020   5.916   3.672
 5966  LAT   Au 6506   0.816   5.916   3.876
 5967  LAT   Au 6507   1.020   5.712   3.876
 5968  LAT   Au 6508   1.224   5.712   3.672
 5969  LAT   Au 6509   1.428   5.916   3.672
 5970  LAT   Au 6510   1.224   5.916   3.876
 5971  LAT   Au 6511   1.428   5.712   3.876
 5972  LAT   Au 6512   1.632   5.916   3.876
 5973  LAT   Au 6513   5.508   5.916   3.672
 5974  LAT   Au 6514   5.916   5.916   3.672
 5975  LAT   Au 6515   5.712   5.916   3.876
 5976  LAT   Au 6516   5.916   5.712   3.876
 5977  LAT   Au 6517   6.120   5.712   3.672
 5978  LAT   Au 6518   6.324   5.916   3.672
 5979  LAT   Au 6519   6.120   5.916   3.876
 5980  LAT   Au 6520   6.324   5.712   3.876
 5981  LAT   Au 6521   6.528   5.712   3.672
 5982  LAT   Au 6522   6.732   5.916   3.672
 5983  LAT   Au 6523   6.528   5.916   3.876
 5984  LAT   Au 6524   6.732   5.712   3.876
 5985  LAT   Au 6525   6.936   5.712   3.672
 5986  LAT   Au 6526   7.140   5.916   3.672
 5987  LAT   Au 6527   6.936   5.916   3.876
 5988  LAT   Au 6528   7.140   5.712   3.876
 5989  LAT   Au 6529   0.000   6.120   3.672
 5990  LAT   Au 6530   0.204   6.324   3.672
 5991  LAT   Au 6531   0.000   6.324   3.876
 5992  LAT   Au 6532   0.204   6.120   3.876
 5993  LAT   Au 6533   0.408   6.120   3.672
 5994  LAT   Au 6534   0.612   6.324   3.672
 5995  LAT   Au 6535   0.408   6.324   3.876
 5996  LAT   Au 6536   0.612   6.120   3.876
 5997  LAT   Au 6537   0.816   6.120   3.672
 5998  LAT   Au 6538   1.020   6.324   3.672
 5999  LAT   Au 6539   0.816   6.324   3.876
 6000  LAT   Au 6540   1.020   6.120   3.876
 6001  LAT   Au 6541   1.224   6.120   3.672
 6002  LAT   Au 6542   1.428   6.324   3.672
 6003  LAT   Au 6543   1.224   6.324   3.876
 6004  LAT   Au 6544   1.428   6.120   3.876
 6005  LAT   Au 6545   1.632   6.120   3.672
 6006  LAT   Au 6546   1.836   6.324   3.672
 6007  LAT   Au 6547   1.632   6.324   3.876
 6008  LAT   Au 6548   1.836   6.120   3.876
 6009  LAT   Au 6549   2.244   6.324   3.672
 6010  LAT   Au 6550   2.040   6.324   3.876
 6011  LAT   Au 6551   5.100   6.324   3.672
 6012  LAT   Au 6552   4.896   6.324   3.876
 6013  LAT   Au 6553   5.304   6.120   3.672
 6014  LAT   Au 6554   5.508   6.324   3.672
 6015  LAT   Au 6555   5.304   6.324   3.876
 6016  LAT   Au 6556   5.508   6.120   3.876
 6017  LAT   Au 6557   5.712   6.120   3.672
 6018  LAT   Au 6558   5.916   6.324   3.672
 6019  LAT   Au 6559   5.712   6.324   3.876
 6020  LAT   Au 6560   5.916   6.120   3.876
 6021  LAT   Au 6561   6.120   6.120   3.672
 6022  LAT   Au 6562   6.324   6.324   3.672
 6023  LAT   Au 6563   6.120   6.324   3.876
 6024  LAT   Au 6564   6.324   6.120   3.876
 6025  LAT   Au 6565   6.528   6.120   3.672
 6026  LAT   Au 6566   6.732   6.324   3.672
 6027  LAT   Au 6567   6.528   6.324   3.876
 6028  LAT   Au 6568   6.732   6.120   3.876
 6029  LAT   Au 6569   6.936   6.120   3.672
 6030  LAT   Au 6570   7.140   6.324   3.672
 6031  LAT   Au 6571   6.936   6.324   3.876
 6032  LAT   Au 6572   7.140   6.120   3.876
 6033  LAT   Au 6573   0.000   6.528   3.672
 6034  LAT   Au 6574   0.204   6.732   3.672
 6035  LAT   Au 6575   0.000   6.732   3.876
 6036  LAT   Au 6576   0.204   6.528   3.876
 6037  LAT   Au 6577   0.408   6.528   3.672
 6038  LAT   Au 6578   0.612   6.732   3.672
 6039  LAT   Au 6579   0.408   6.732   3.876
 6040  LAT   Au 6580   0.612   6.528   3.876
 6041  LAT   Au 6581   0.816   6.528   3.672
 6042  LAT   Au 6582   1.020   6.732   3.672
 6043  LAT   Au 6583   0.816   6.732   3.876
 6044  LAT   Au 6584   1.020   6.528   3.876
 6045  LAT   Au 6585   1.224   6.528   3.672
 6046  LAT   Au 6586   1.428   6.732   3.672
 6047  LAT   Au 6587   1.224   6.732   3.876
 6048  LAT   Au 6588   1.428   6.528   3.876
 6049  LAT   Au 6589   1.632   6.528   3.672
 6050  LAT   Au 6590   1.836   6.732   3.672
 6051  LAT   Au 6591   1.632   6.732   3.876
 6052  LAT   Au 6592   1.836   6.528   3.876
 6053  LAT   Au 6593   2.040   6.528   3.672
 6054  LAT   Au 6594   2.244   6.732   3.672
 6055  LAT   Au 6595   2.040   6.732   3.876
 6056  LAT   Au 6596   2.244   6.528   3.876
 6057  LAT   Au 6597   2.448   6.528   3.672
 6058  LAT   Au 6598   2.652   6.732   3.672
 6059  LAT   Au 6599   2.448   6.732   3.876
 6060  LAT   Au 6600   2.652   6.528   3.876
 6061  LAT   Au 6601   2.856   6.528   3.672
 6062  LAT   Au 6602   3.060   6.732   3.672
 6063  LAT   Au 6603   2.856   6.732   3.876
 6064  LAT   Au 6604   3.468   6.732   3.672
 6065  LAT   Au 6605   3.264   6.732   3.876
 6066  LAT   Au 6606   3.876   6.732   3.672
 6067  LAT   Au 6607   3.672   6.732   3.876
 6068  LAT   Au 6608   4.284   6.732   3.672
 6069  LAT   Au 6609   4.080   6.732   3.876
 6070  LAT   Au 6610   4.284   6.528   3.876
 6071  LAT   Au 6611   4.488   6.528   3.672
 6072  LAT   Au 6612   4.692   6.732   3.672
 6073  LAT   Au 6613   4.488   6.732   3.876
 6074  LAT   Au 6614   4.692   6.528   3.876
 6075  LAT   Au 6615   4.896   6.528   3.672
 6076  LAT   Au 6616   5.100   6.732   3.672
 6077  LAT   Au 6617   4.896   6.732   3.876
 6078  LAT   Au 6618   5.100   6.528   3.876
 6079  LAT   Au 6619   5.304   6.528   3.672
 6080  LAT   Au 6620   5.508   6.732   3.672
 6081  LAT   Au 6621   5.304   6.732   3.876
 6082  LAT   Au 6622   5.508   6.528   3.876
 6083  LAT   Au 6623   5.712   6.528   3.672
 6084  LAT   Au 6624   5.916   6.732   3.672
 6085  LAT   Au 6625   5.712   6.732   3.876
 6086  LAT   Au 6626   5.916   6.528   3.876
 6087  LAT   Au 6627   6.120   6.528   3.672
 6088  LAT   Au 6628   6.324   6.732   3.672
 6089  LAT   Au 6629   6.120   6.732   3.876
 6090  LAT   Au 6630   6.324   6.528   3.876
 6091  LAT   Au 6631   6.528   6.528   3.672
 6092  LAT   Au 6632   6.732   6.732   3.672
 6093  LAT   Au 6633   6.528   6.732   3.876
 6094  LAT   Au 6634   6.732   6.528   3.876
 6095  LAT   Au 6635   6.936   6.528   3.672
 6096  LAT   Au 6636   7.140   6.732   3.672
 6097  LAT   Au 6637   6.936   6.732   3.876
 6098  LAT   Au 6638   7.140   6.528   3.876
 6099  LAT   Au 6639   0.000   6.936   3.672
 6100  LAT   Au 6640   0.204   7.140   3.672
 6101  LAT   Au 6641   0.000   7.140   3.876
 6102  LAT   Au 6642   0.204   6.936   3.876
 6103  LAT   Au 6643   0.408   6.936   3.672
 6104  LAT   Au 6644   0.612   7.140   3.672
 6105  LAT   Au 6645   0.408   7.140   3.876
 6106  LAT   Au 6646   0.612   6.936   3.876
 6107  LAT   Au 6647   0.816   6.936   3.672
 6108  LAT   Au 6648   1.020   7.140   3.672
 6109  LAT   Au 6649   0.816   7.140   3.876
 6110  LAT   Au 6650   1.020   6.936   3.876
 6111  LAT   Au 6651   1.224   6.936   3.672
 6112  LAT   Au 6652   1.428   7.140   3.672
 6113  LAT   Au 6653   1.224   7.140   3.876
 6114  LAT   Au 6654   1.428   6.936   3.876
 6115  LAT   Au 6655   1.632   6.936   3.672
 6116  LAT   Au 6656   1.836   7.140   3.672
 6117  LAT   Au 6657   1.632   7.140   3.876
 6118  LAT   Au 6658   1.836   6.936   3.876
 6119  LAT   Au 6659   2.040   6.936   3.672
 6120  LAT   Au 6660   2.244   7.140   3.672
 6121  LAT   Au 6661   2.040   7.140   3.876
 6122  LAT   Au 6662   2.244   6.936   3.876
 6123  LAT   Au 6663   2.448   6.936   3.672
 6124  LAT   Au 6664   2.652   7.140   3.672
 6125  LAT   Au 6665   2.448   7.140   3.876
 6126  LAT   Au 6666   2.652   6.936   3.876
 6127  LAT   Au 6667   2.856   6.936   3.672
 6128  LAT   Au 6668   3.060   7.140   3.672
 6129  LAT   Au 6669   2.856   7.140   3.876
 6130  LAT   Au 6670   3.060   6.936   3.876
 6131  LAT   Au 6671   3.264   6.936   3.672
 6132  LAT   Au 6672   3.468   7.140   3.672
 6133  LAT   Au 6673   3.264   7.140   3.876
 6134  LAT   Au 6674   3.468   6.936   3.876
 6135  LAT   Au 6675   3.672   6.936   3.672
 6136  LAT   Au 6676   3.876   7.140   3.672
 6137  LAT   Au 6677   3.672   7.140   3.876
 6138  LAT   Au 6678   3.876   6.936   3.876
 6139  LAT   Au 6679   4.080   6.936   3.672
 6140  LAT   Au 6680   4.284   7.140   3.672
 6141  LAT   Au 6681   4.080   7.140   3.876
 6142  LAT   Au 6682   4.284   6.936   3.876
 6143  LAT   Au 6683   4.488   6.936   3.672
 6144  LAT   Au 6684   4.692   7.140   3.672
 6145  LAT   Au 6685   4.488   7.140   3.876
 6146  LAT   Au 6686   4.692   6.936   3.876
 6147  LAT   Au 6687   4.896   6.936   3.672
 6148  LAT   Au 6688   5.100   7.140   3.672
 6149  LAT   Au 6689   4.896   7.140   3.876
 6150  LAT   Au 6690   5.100   6.936   3.876
 6151  LAT   Au 6691   5.304   6.936   3.672
 6152  LAT   Au 6692   5.508   7.140   3.672
 6153  LAT   Au 6693   5.304   7.140   3.876
 6154  LAT   Au 6694   5.508   6.936   3.876
 6155  LAT   Au 6695   5.712   6.936   3.672
 6156  LAT   Au 6696   5.916   7.140   3.672
 6157  LAT   Au 6697   5.712   7.140   3.876
 6158  LAT   Au 6698   5.916   6.936   3.876
 6159  LAT   Au 6699   6.120   6.936   3.672
 6160  LAT   Au 6700   6.324   7.140   3.672
 6161  LAT   Au 6701   6.120   7.140   3.876
 6162  LAT   Au 6702   6.324   6.936   3.876
 6163  LAT   Au 6703   6.528   6.936   3.672
 6164  LAT   Au 6704   6.732   7.140   3.672
 6165  LAT   Au 6705   6.528   7.140   3.876
 6166  LAT   Au 6706   6.732   6.936   3.876
 6167  LAT   Au 6707   6.936   6.936   3.672
 6168  LAT   Au 6708   7.140   7.140   3.672
 6169  LAT   Au 6709   6.936   7.140   3.876
 6170  LAT   Au 6710   7.140   6.936   3.876
 6171  LAT   Au 6711   0.000   0.000   4.080
 6172  LAT   Au 6712   0.204   0.204   4.080
 6173  LAT   Au 6713   0.000   0.204   4.284
 6174  LAT   Au 6714   0.204   0.000   4.284
 6175  LAT   Au 6715   0.408   0.000   4.080
 6176  LAT   Au 6716   0.612   0.204   4.080
 6177  LAT   Au 6717   0.408   0.204   4.284
 6178  LAT   Au 6718   0.612   0.000   4.284
 6179  LAT   Au 6719   0.816   0.000   4.080
 6180  LAT   Au 6720   1.020   0.204   4.080
 6181  LAT   Au 6721   0.816   0.204   4.284
 6182  LAT   Au 6722   1.020   0.000   4.284
 6183  LAT   Au 6723   1.224   0.000   4.080
 6184  LAT   Au 6724   1.428   0.204   4.080
 6185  LAT   Au 6725   1.224   0.204   4.284
 6186  LAT   Au 6726   1.428   0.000   4.284
 6187  LAT   Au 6727   1.632   0.000   4.080
 6188  LAT   Au 6728   1.836   0.204   4.080
 6189  LAT   Au 6729   1.632   0.204   4.284
 6190  LAT   Au 6730   1.836   0.000   4.284
 6191  LAT   Au 6731   2.040   0.000   4.080
 6192  LAT   Au 6732   2.244   0.204   4.080
 6193  LAT   Au 6733   2.040   0.204   4.284
 6194  LAT   Au 6734   2.244   0.000   4.284
 6195  LAT   Au 6735   2.448   0.000   4.080
 6196  LAT   Au 6736   2.652   0.204   4.080
 6197  LAT   Au 6737   2.448   0.204   4.284
 6198  LAT   Au 6738   2.652   0.000   4.284
 6199  LAT   Au 6739   2.856   0.000   4.080
 6200  LAT   Au 6740   3.060   0.204   4.080
 6201  LAT   Au 6741   2.856   0.204   4.284
 6202  LAT   Au 6742   3.060   0.000   4.284
 6203  LAT   Au 6743   3.264   0.000   4.080
 6204  LAT   Au 6744   3.468   0.204   4.080
 6205  LAT   Au 6745   3.264   0.204   4.284
 6206  LAT   Au 6746   3.468   0.000   4.284
 6207  LAT   Au 6747   3.672   0.000   4.080
 6208  LAT   Au 6748   3.876   0.204   4.080
 6209  LAT   Au 6749   3.672   0.204   4.284
 6210  LAT   Au 6750   3.876   0.000   4.284
 6211  LAT   Au 6751   4.080   0.000   4.080
 6212  LAT   Au 6752   4.284   0.204   4.080
 6213  LAT   Au 6753   4.080   0.204   4.284
 6214  LAT   Au 6754   4.284   0.000   4.284
 6215  LAT   Au 6755   4.488   0.000   4.080
 6216  LAT   Au 6756   4.692   0.204   4.080
 6217  LAT   Au 6757   4.488   0.204   4.284
 6218  LAT   Au 6758   4.692   0.000   4.284
 6219  LAT   Au 6759   4.896   0.000   4.080
 6220  LAT   Au 6760   5.100   0.204   4.080
 6221  LAT   Au 6761   4.896   0.204   4.284
 6222  LAT   Au 6762   5.100   0.000   4.284
 6223  LAT   Au 6763   5.304   0.000   4.080
 6224  LAT   Au 6764   5.508   0.204   4.080
 6225  LAT   Au 6765   5.304   0.204   4.284
 6226  LAT   Au 6766   5.508   0.000   4.284
 6227  LAT   Au 6767   5.712   0.000   4.080
 6228  LAT   Au 6768   5.916   0.204   4.080
 6229  LAT   Au 6769   5.712   0.204   4.284
 6230  LAT   Au 6770   5.916   0.000   4.284
 6231  LAT   Au 6771   6.120   0.000   4.080
 6232  LAT   Au 6772   6.324   0.204   4.080
 6233  LAT   Au 6773   6.120   0.204   4.284
 6234  LAT   Au 6774   6.324   0.000   4.284
 6235  LAT   Au 6775   6.528   0.000   4.080
 6236  LAT   Au 6776   6.732   0.204   4.080
 6237  LAT   Au 6777   6.528   0.204   4.284
 6238  LAT   Au 6778   6.732   0.000   4.284
 6239  LAT   Au 6779   6.936   0.000   4.080
 6240  LAT   Au 6780   7.140   0.204   4.080
 6241  LAT   Au 6781   6.936   0.204   4.284
 6242  LAT   Au 6782   7.140   0.000   4.284
 6243  LAT   Au 6783   0.000   0.408   4.080
 6244  LAT   Au 6784   0.204   0.612   4.080
 6245  LAT   Au 6785   0.000   0.612   4.284
 6246  LAT   Au 6786   0.204   0.408   4.284
 6247  LAT   Au 6787   0.408   0.408   4.080
 6248  LAT   Au 6788   0.612   0.612   4.080
 6249  LAT   Au 6789   0.408   0.612   4.284
 6250  LAT   Au 6790   0.612   0.408   4.284
 6251  LAT   Au 6791   0.816   0.408   4.080
 6252  LAT   Au 6792   1.020   0.612   4.080
 6253  LAT   Au 6793   0.816   0.612   4.284
 6254  LAT   Au 6794   1.020   0.408   4.284
 6255  LAT   Au 6795   1.224   0.408   4.080
 6256  LAT   Au 6796   1.428   0.612   4.080
 6257  LAT   Au 6797   1.224   0.612   4.284
 6258  LAT   Au 6798   1.428   0.408   4.284
 6259  LAT   Au 6799   1.632   0.408   4.080
 6260  LAT   Au 6800   1.836   0.612   4.080
 6261  LAT   Au 6801   1.632   0.612   4.284
 6262  LAT   Au 6802   1.836   0.408   4.284
 6263  LAT   Au 6803   2.040   0.408   4.080
 6264  LAT   Au 6804   2.244   0.612   4.080
 6265  LAT   Au 6805   2.040   0.612   4.284
 6266  LAT   Au 6806   2.244   0.408   4.284
 6267  LAT   Au 6807   2.448   0.408   4.080
 6268  LAT   Au 6808   2.652   0.612   4.080
 6269  LAT   Au 6809   2.448   0.612   4.284
 6270  LAT   Au 6810   2.652   0.408   4.284
 6271  LAT   Au 6811   2.856   0.408   4.080
 6272  LAT   Au 6812   3.060   0.612   4.080
 6273  LAT   Au 6813   2.856   0.612   4.284
 6274  LAT   Au 6814   3.060   0.408   4.284
 6275  LAT   Au 6815   3.264   0.408   4.080
 6276  LAT   Au 6816   3.264   0.612   4.284
 6277  LAT   Au 6817   3.468   0.408   4.284
 6278  LAT   Au 6818   3.672   0.408   4.080
 6279  LAT   Au 6819   3.876   0.408   4.284
 6280  LAT   Au 6820   4.080   0.408   4.080
 6281  LAT   Au 6821   4.284   0.612   4.080
 6282  LAT   Au 6822   4.080   0.612   4.284
 6283  LAT   Au 6823   4.284   0.408   4.284
 6284  LAT   Au 6824   4.488   0.408   4.080
 6285  LAT   Au 6825   4.692   0.612   4.080
 6286  LAT   Au 6826   4.488   0.612   4.284
 6287  LAT   Au 6827   4.692   0.408   4.284
 6288  LAT   Au 6828   4.896   0.408   4.080
 6289  LAT   Au 6829   5.100   0.612   4.080
 6290  LAT   Au 6830   4.896   0.612   4.284
 6291  LAT   Au 6831   5.100   0.408   4.284
 6292  LAT   Au 6832   5.304   0.408   4.080
 6293  LAT   Au 6833   5.508   0.612   4.080
 6294  LAT   Au 6834   5.304   0.612   4.284
 6295  LAT   Au 6835   5.508   0.408   4.284
 6296  LAT   Au 6836   5.712   0.408   4.080
 6297  LAT   Au 6837   5.916   0.612   4.080
 6298  LAT   Au 6838   5.712   0.612   4.284
 6299  LAT   Au 6839   5.916   0.408   4.284
 6300  LAT   Au 6840   6.120   0.408   4.080
 6301  LAT   Au 6841   6.324   0.612   4.080
 6302  LAT   Au 6842   6.120   0.612   4.284
 6303  LAT   Au 6843   6.324   0.408   4.284
 6304  LAT   Au 6844   6.528   0.408   4.080
 6305  LAT   Au 6845   6.732   0.612   4.080
 6306  LAT   Au 6846   6.528   0.612   4.284
 6307  LAT   Au 6847   6.732   0.408   4.284
 6308  LAT   Au 6848   6.936   0.408   4.080
 6309  LAT   Au 6849   7.140   0.612   4.080
 6310  LAT   Au 6850   6.936   0.612   4.284
 6311  LAT   Au 6851   7.140   0.408   4.284
 6312  LAT   Au 6852   0.000   0.816   4.080
 6313  LAT   Au 6853   0.204   1.020   4.080
 6314  LAT   Au 6854   0.000   1.020   4.284
 6315  LAT   Au 6855   0.204   0.816   4.284
 6316  LAT   Au 6856   0.408   0.816   4.080
 6317  LAT   Au 6857   0.612   1.020   4.080
 6318  LAT   Au 6858   0.408   1.020   4.284
 6319  LAT   Au 6859   0.612   0.816   4.284
 6320  LAT   Au 6860   0.816   0.816   4.080
 6321  LAT   Au 6861   1.020   1.020   4.080
 6322  LAT   Au 6862   0.816   1.020   4.284
 6323  LAT   Au 6863   1.020   0.816   4.284
 6324  LAT   Au 6864   1.224   0.816   4.080
 6325  LAT   Au 6865   1.428   1.020   4.080
 6326  LAT   Au 6866   1.224   1.020   4.284
 6327  LAT   Au 6867   1.428   0.816   4.284
 6328  LAT   Au 6868   1.632   0.816   4.080
 6329  LAT   Au 6869   1.836   1.020   4.080
 6330  LAT   Au 6870   1.632   1.020   4.284
 6331  LAT   Au 6871   1.836   0.816   4.284
 6332  LAT   Au 6872   2.040   0.816   4.080
 6333  LAT   Au 6873   2.040   1.020   4.284
 6334  LAT   Au 6874   2.244   0.816   4.284
 6335  LAT   Au 6875   2.448   0.816   4.080
 6336  LAT   Au 6876   4.896   0.816   4.080
 6337  LAT   Au 6877   5.100   0.816   4.284
 6338  LAT   Au 6878   5.304   0.816   4.080
 6339  LAT   Au 6879   5.508   1.020   4.080
 6340  LAT   Au 6880   5.304   1.020   4.284
 6341  LAT   Au 6881   5.508   0.816   4.284
 6342  LAT   Au 6882   5.712   0.816   4.080
 6343  LAT   Au 6883   5.916   1.020   4.080
 6344  LAT   Au 6884   5.712   1.020   4.284
 6345  LAT   Au 6885   5.916   0.816   4.284
 6346  LAT   Au 6886   6.120   0.816   4.080
 6347  LAT   Au 6887   6.324   1.020   4.080
 6348  LAT   Au 6888   6.120   1.020   4.284
 6349  LAT   Au 6889   6.324   0.816   4.284
 6350  LAT   Au 6890   6.528   0.816   4.080
 6351  LAT   Au 6891   6.732   1.020   4.080
 6352  LAT   Au 6892   6.528   1.020   4.284
 6353  LAT   Au 6893   6.732   0.816   4.284
 6354  LAT   Au 6894   6.936   0.816   4.080
 6355  LAT   Au 6895   7.140   1.020   4.080
 6356  LAT   Au 6896   6.936   1.020   4.284
 6357  LAT   Au 6897   7.140   0.816   4.284
 6358  LAT   Au 6898   0.000   1.224   4.080
 6359  LAT   Au 6899   0.204   1.428   4.080
 6360  LAT   Au 6900   0.000   1.428   4.284
 6361  LAT   Au 6901   0.204   1.224   4.284
 6362  LAT   Au 6902   0.408   1.224   4.080
 6363  LAT   Au 6903   0.612   1.428   4.080
 6364  LAT   Au 6904   0.408   1.428   4.284
 6365  LAT   Au 6905   0.612   1.224   4.284
 6366  LAT   Au 6906   0.816   1.224   4.080
 6367  LAT   Au 6907   1.020   1.428   4.080
 6368  LAT   Au 6908   0.816   1.428   4.284
 6369  LAT   Au 6909   1.020   1.224   4.284
 6370  LAT   Au 6910   1.224   1.224   4.080
 6371  LAT   Au 6911   1.428   1.428   4.080
 6372  LAT   Au 6912   1.224   1.428   4.284
 6373  LAT   Au 6913   1.428   1.224   4.284
 6374  LAT   Au 6914   1.632   1.224   4.080
 6375  LAT   Au 6915   5.508   1.224   4.284
 6376  LAT   Au 6916   5.712   1.224   4.080
 6377  LAT   Au 6917   5.916   1.428   4.080
 6378  LAT   Au 6918   5.712   1.428   4.284
 6379  LAT   Au 6919   5.916   1.224   4.284
 6380  LAT   Au 6920   6.120   1.224   4.080
 6381  LAT   Au 6921   6.324   1.428   4.080
 6382  LAT   Au 6922   6.120   1.428   4.284
 6383  LAT   Au 6923   6.324   1.224   4.284
 6384  LAT   Au 6924   6.528   1.224   4.080
 6385  LAT   Au 6925   6.732   1.428   4.080
 6386  LAT   Au 6926   6.528   1.428   4.284
 6387  LAT   Au 6927   6.732   1.224   4.284
 6388  LAT   Au 6928   6.936   1.224   4.080
 6389  LAT   Au 6929   7.140   1.428   4.080
 6390  LAT   Au 6930   6.936   1.428   4.284
 6391  LAT   Au 6931   7.140   1.224   4.284
 6392  LAT   Au 6932   0.000   1.632   4.080
 6393  LAT   Au 6933   0.204   1.836   4.080
 6394  LAT   Au 6934   0.000   1.836   4.284
 6395  LAT   Au 6935   0.204   1.632   4.284
 6396  LAT   Au 6936   0.408   1.632   4.080
 6397  LAT   Au 6937   0.612   1.836   4.080
 6398  LAT   Au 6938   0.408   1.836   4.284
 6399  LAT   Au 6939   0.612   1.632   4.284
 6400  LAT   Au 6940   0.816   1.632   4.080
 6401  LAT   Au 6941   1.020   1.836   4.080
 6402  LAT   Au 6942   0.816   1.836   4.284
 6403  LAT   Au 6943   1.020   1.632   4.284
 6404  LAT   Au 6944   1.224   1.632   4.080
 6405  LAT   Au 6945   5.916   1.632   4.284
 6406  LAT   Au 6946   6.120   1.632   4.080
 6407  LAT   Au 6947   6.324   1.836   4.080
 6408  LAT   Au 6948   6.120   1.836   4.284
 6409  LAT   Au 6949   6.324   1.632   4.284
 6410  LAT   Au 6950   6.528   1.632   4.080
 6411  LAT   Au 6951   6.732   1.836   4.080
 6412  LAT   Au 6952   6.528   1.836   4.284
 6413  LAT   Au 6953   6.732   1.632   4.284
 6414  LAT   Au 6954   6.936   1.632   4.080
 6415  LAT   Au 6955   7.140   1.836   4.080
 6416  LAT   Au 6956   6.936   1.836   4.284
 6417  LAT   Au 6957   7.140   1.632   4.284
 6418  LAT   Au 6958   0.000   2.040   4.080
 6419  LAT   Au 6959   0.204   2.244   4.080
 6420  LAT   Au 6960   0.000   2.244   4.284
 6421  LAT   Au 6961   0.204   2.040   4.284
 6422  LAT   Au 6962   0.408   2.040   4.080
 6423  LAT   Au 6963   0.612   2.244   4.080
 6424  LAT   Au 6964   0.408   2.244   4.284
 6425  LAT   Au 6965   0.612   2.040   4.284
 6426  LAT   Au 6966   0.816   2.040   4.080
 6427  LAT   Au 6967   0.816   2.244   4.284
 6428  LAT   Au 6968   1.020   2.040   4.284
 6429  LAT   Au 6969   6.324   2.244   4.080
 6430  LAT   Au 6970   6.324   2.040   4.284
 6431  LAT   Au 6971   6.528   2.040   4.080
 6432  LAT   Au 6972   6.732   2.244   4.080
 6433  LAT   Au 6973   6.528   2.244   4.284
 6434  LAT   Au 6974   6.732   2.040   4.284
 6435  LAT   Au 6975   6.936   2.040   4.080
 6436  LAT   Au 6976   7.140   2.244   4.080
 6437  LAT   Au 6977   6.936   2.244   4.284
 6438  LAT   Au 6978   7.140   2.040   4.284
 6439  LAT   Au 6979   0.000   2.448   4.080
 6440  LAT   Au 6980   0.204   2.652   4.080
 6441  LAT   Au 6981   0.000   2.652   4.284
 6442  LAT   Au 6982   0.204   2.448   4.284
 6443  LAT   Au 6983   0.408   2.448   4.080
 6444  LAT   Au 6984   0.612   2.652   4.080
 6445  LAT   Au 6985   0.408   2.652   4.284
 6446  LAT   Au 6986   0.612   2.448   4.284
 6447  LAT   Au 6987   0.816   2.448   4.080
 6448  LAT   Au 6988   6.528   2.448   4.080
 6449  LAT   Au 6989   6.732   2.652   4.080
 6450  LAT   Au 6990   6.528   2.652   4.284
 6451  LAT   Au 6991   6.732   2.448   4.284
 6452  LAT   Au 6992   6.936   2.448   4.080
 6453  LAT   Au 6993   7.140   2.652   4.080
 6454  LAT   Au 6994   6.936   2.652   4.284
 6455  LAT   Au 6995   7.140   2.448   4.284
 6456  LAT   Au 6996   0.000   2.856   4.080
 6457  LAT   Au 6997   0.204   3.060   4.080
 6458  LAT   Au 6998   0.000   3.060   4.284
 6459  LAT   Au 6999   0.204   2.856   4.284
 6460  LAT   Au 7000   0.408   2.856   4.080
 6461  LAT   Au 7001   0.612   3.060   4.080
 6462  LAT   Au 7002   0.408   3.060   4.284
 6463  LAT   Au 7003   0.612   2.856   4.284
 6464  LAT   Au 7004   6.528   2.856   4.080
 6465  LAT   Au 7005   6.732   3.060   4.080
 6466  LAT   Au 7006   6.732   2.856   4.284
 6467  LAT   Au 7007   6.936   2.856   4.080
 6468  LAT   Au 7008   7.140   3.060   4.080
 6469  LAT   Au 7009   6.936   3.060   4.284
 6470  LAT   Au 7010   7.140   2.856   4.284
 6471  LAT   Au 7011   0.000   3.264   4.080
 6472  LAT   Au 7012   0.204   3.468   4.080
 6473  LAT   Au 7013   0.000   3.468   4.284
 6474  LAT   Au 7014   0.204   3.264   4.284
 6475  LAT   Au 7015   0.408   3.264   4.080
 6476  LAT   Au 7016   0.408   3.468   4.284
 6477  LAT   Au 7017   0.612   3.264   4.284
 6478  LAT   Au 7018   6.732   3.468   4.080
 6479  LAT   Au 7019   6.732   3.264   4.284
 6480  LAT   Au 7020   6.936   3.264   4.080
 6481  LAT   Au 7021   7.140   3.468   4.080
 6482  LAT   Au 7022   6.936   3.468   4.284
 6483  LAT   Au 7023   7.140   3.264   4.284
 6484  LAT   Au 7024   0.000   3.672   4.080
 6485  LAT   Au 7025   0.204   3.876   4.080
 6486  LAT   Au 7026   0.000   3.876   4.284
 6487  LAT   Au 7027   0.204   3.672   4.284
 6488  LAT   Au 7028   0.408   3.672   4.080
 6489  LAT   Au 7029   0.408   3.876   4.284
 6490  LAT   Au 7030   6.732   3.876   4.080
 6491  LAT   Au 7031   6.732   3.672   4.284
 6492  LAT   Au 7032   6.936   3.672   4.080
 6493  LAT   Au 7033   7.140   3.876   4.080
 6494  LAT   Au 7034   6.936   3.876   4.284
 6495  LAT   Au 7035   7.140   3.672   4.284
 6496  LAT   Au 7036   0.000   4.080   4.080
 6497  LAT   Au 7037   0.204   4.284   4.080
 6498  LAT   Au 7038   0.000   4.284   4.284
 6499  LAT   Au 7039   0.204   4.080   4.284
 6500  LAT   Au 7040   0.408   4.080   4.080
 6501  LAT   Au 7041   0.612   4.284   4.080
 6502  LAT   Au 7042   0.408   4.284   4.284
 6503  LAT   Au 7043   0.612   4.080   4.284
 6504  LAT   Au 7044   6.732   4.284   4.080
 6505  LAT   Au 7045   6.528   4.284   4.284
 6506  LAT   Au 7046   6.732   4.080   4.284
 6507  LAT   Au 7047   6.936   4.080   4.080
 6508  LAT   Au 7048   7.140   4.284   4.080
 6509  LAT   Au 7049   6.936   4.284   4.284
 6510  LAT   Au 7050   7.140   4.080   4.284
 6511  LAT   Au 7051   0.000   4.488   4.080
 6512  LAT   Au 7052   0.204   4.692   4.080
 6513  LAT   Au 7053   0.000   4.692   4.284
 6514  LAT   Au 7054   0.204   4.488   4.284
 6515  LAT   Au 7055   0.408   4.488   4.080
 6516  LAT   Au 7056   0.612   4.692   4.080
 6517  LAT   Au 7057   0.408   4.692   4.284
 6518  LAT   Au 7058   0.612   4.488   4.284
 6519  LAT   Au 7059   6.528   4.488   4.080
 6520  LAT   Au 7060   6.732   4.692   4.080
 6521  LAT   Au 7061   6.528   4.692   4.284
 6522  LAT   Au 7062   6.732   4.488   4.284
 6523  LAT   Au 7063   6.936   4.488   4.080
 6524  LAT   Au 7064   7.140   4.692   4.080
 6525  LAT   Au 7065   6.936   4.692   4.284
 6526  LAT   Au 7066   7.140   4.488   4.284
 6527  LAT   Au 7067   0.000   4.896   4.080
 6528  LAT   Au 7068   0.204   5.100   4.080
 6529  LAT   Au 7069   0.000   5.100   4.284
 6530  LAT   Au 7070   0.204   4.896   4.284
 6531  LAT   Au 7071   0.408   4.896   4.080
 6532  LAT   Au 7072   0.612   5.100   4.080
 6533  LAT   Au 7073   0.408   5.100   4.284
 6534  LAT   Au 7074   0.612   4.896   4.284
 6535  LAT   Au 7075   0.816   4.896   4.080
 6536  LAT   Au 7076   0.816   5.100   4.284
 6537  LAT   Au 7077   6.324   5.100   4.080
 6538  LAT   Au 7078   6.324   4.896   4.284
 6539  LAT   Au 7079   6.528   4.896   4.080
 6540  LAT   Au 7080   6.732   5.100   4.080
 6541  LAT   Au 7081   6.528   5.100   4.284
 6542  LAT   Au 7082   6.732   4.896   4.284
 6543  LAT   Au 7083   6.936   4.896   4.080
 6544  LAT   Au 7084   7.140   5.100   4.080
 6545  LAT   Au 7085   6.936   5.100   4.284
 6546  LAT   Au 7086   7.140   4.896   4.284
 6547  LAT   Au 7087   0.000   5.304   4.080
 6548  LAT   Au 7088   0.204   5.508   4.080
 6549  LAT   Au 7089   0.000   5.508   4.284
 6550  LAT   Au 7090   0.204   5.304   4.284
 6551  LAT   Au 7091   0.408   5.304   4.080
 6552  LAT   Au 7092   0.612   5.508   4.080
 6553  LAT   Au 7093   0.408   5.508   4.284
 6554  LAT   Au 7094   0.612   5.304   4.284
 6555  LAT   Au 7095   0.816   5.304   4.080
 6556  LAT   Au 7096   1.020   5.508   4.080
 6557  LAT   Au 7097   0.816   5.508   4.284
 6558  LAT   Au 7098   1.020   5.304   4.284
 6559  LAT   Au 7099   1.224   5.508   4.284
 6560  LAT   Au 7100   5.916   5.508   4.080
 6561  LAT   Au 7101   6.120   5.304   4.080
 6562  LAT   Au 7102   6.324   5.508   4.080
 6563  LAT   Au 7103   6.120   5.508   4.284
 6564  LAT   Au 7104   6.324   5.304   4.284
 6565  LAT   Au 7105   6.528   5.304   4.080
 6566  LAT   Au 7106   6.732   5.508   4.080
 6567  LAT   Au 7107   6.528   5.508   4.284
 6568  LAT   Au 7108   6.732   5.304   4.284
 6569  LAT   Au 7109   6.936   5.304   4.080
 6570  LAT   Au 7110   7.140   5.508   4.080
 6571  LAT   Au 7111   6.936   5.508   4.284
 6572  LAT   Au 7112   7.140   5.304   4.284
 6573  LAT   Au 7113   0.000   5.712   4.080
 6574  LAT   Au 7114   0.204   5.916   4.080
 6575  LAT   Au 7115   0.000   5.916   4.284
 6576  LAT   Au 7116   0.204   5.712   4.284
 6577  LAT   Au 7117   0.408   5.712   4.080
 6578  LAT   Au 7118   0.612   5.916   4.080
 6579  LAT   Au 7119   0.408   5.916   4.284
 6580  LAT   Au 7120   0.612   5.712   4.284
 6581  LAT   Au 7121   0.816   5.712   4.080
 6582  LAT   Au 7122   1.020   5.916   4.080
 6583  LAT   Au 7123   0.816   5.916   4.284
 6584  LAT   Au 7124   1.020   5.712   4.284
 6585  LAT   Au 7125   1.224   5.712   4.080
 6586  LAT   Au 7126   1.428   5.916   4.080
 6587  LAT   Au 7127   1.224   5.916   4.284
 6588  LAT   Au 7128   1.428   5.712   4.284
 6589  LAT   Au 7129   1.632   5.916   4.284
 6590  LAT   Au 7130   5.508   5.916   4.080
 6591  LAT   Au 7131   5.916   5.916   4.080
 6592  LAT   Au 7132   5.712   5.916   4.284
 6593  LAT   Au 7133   5.916   5.712   4.284
 6594  LAT   Au 7134   6.120   5.712   4.080
 6595  LAT   Au 7135   6.324   5.916   4.080
 6596  LAT   Au 7136   6.120   5.916   4.284
 6597  LAT   Au 7137   6.324   5.712   4.284
 6598  LAT   Au 7138   6.528   5.712   4.080
 6599  LAT   Au 7139   6.732   5.916   4.080
 6600  LAT   Au 7140   6.528   5.916   4.284
 6601  LAT   Au 7141   6.732   5.712   4.284
 6602  LAT   Au 7142   6.936   5.712   4.080
 6603  LAT   Au 7143   7.140   5.916   4.080
 6604  LAT   Au 7144   6.936   5.916   4.284
 6605  LAT   Au 7145   7.140   5.712   4.284
 6606  LAT   Au 7146   0.000   6.120   4.080
 6607  LAT   Au 7147   0.204   6.324   4.080
 6608  LAT   Au 7148   0.000   6.324   4.284
 6609  LAT   Au 7149   0.204   6.120   4.284
 6610  LAT   Au 7150   0.408   6.120   4.080
 6611  LAT   Au 7151   0.612   6.324   4.080
 6612  LAT   Au 7152   0.408   6.324   4.284
 6613  LAT   Au 7153   0.612   6.120   4.284
 6614  LAT   Au 7154   0.816   6.120   4.080
 6615  LAT   Au 7155   1.020   6.324   4.080
 6616  LAT   Au 7156   0.816   6.324   4.284
 6617  LAT   Au 7157   1.020   6.120   4.284
 6618  LAT   Au 7158   1.224   6.120   4.080
 6619  LAT   Au 7159   1.428   6.324   4.080
 6620  LAT   Au 7160   1.224   6.324   4.284
 6621  LAT   Au 7161   1.428   6.120   4.284
 6622  LAT   Au 7162   1.632   6.120   4.080
 6623  LAT   Au 7163   1.836   6.324   4.080
 6624  LAT   Au 7164   1.632   6.324   4.284
 6625  LAT   Au 7165   1.836   6.120   4.284
 6626  LAT   Au 7166   2.244   6.324   4.080
 6627  LAT   Au 7167   2.040   6.324   4.284
 6628  LAT   Au 7168   5.100   6.324   4.080
 6629  LAT   Au 7169   4.896   6.324   4.284
 6630  LAT   Au 7170   5.304   6.120   4.080
 6631  LAT   Au 7171   5.508   6.324   4.080
 6632  LAT   Au 7172   5.304   6.324   4.284
 6633  LAT   Au 7173   5.508   6.120   4.284
 6634  LAT   Au 7174   5.712   6.120   4.080
 6635  LAT   Au 7175   5.916   6.324   4.080
 6636  LAT   Au 7176   5.712   6.324   4.284
 6637  LAT   Au 7177   5.916   6.120   4.284
 6638  LAT   Au 7178   6.120   6.120   4.080
 6639  LAT   Au 7179   6.324   6.324   4.080
 6640  LAT   Au 7180   6.120   6.324   4.284
 6641  LAT   Au 7181   6.324   6.120   4.284
 6642  LAT   Au 7182   6.528   6.120   4.080
 6643  LAT   Au 7183   6.732   6.324   4.080
 6644  LAT   Au 7184   6.528   6.324   4.284
 6645  LAT   Au 7185   6.732   6.120   4.284
 6646  LAT   Au 7186   6.936   6.120   4.080
 6647  LAT   Au 7187   7.140   6.324   4.080
 6648  LAT   Au 7188   6.936   6.324   4.284
 6649  LAT   Au 7189   7.140   6.120   4.284
 6650  LAT   Au 7190   0.000   6.528   4.080
 6651  LAT   Au 7191   0.204   6.732   4.080
 6652  LAT   Au 7192   0.000   6.732   4.284
 6653  LAT   Au 7193   0.204   6.528   4.284
 6654  LAT   Au 7194   0.408   6.528   4.080
 6655  LAT   Au 7195   0.612   6.732   4.080
 6656  LAT   Au 7196   0.408   6.732   4.284
 6657  LAT   Au 7197   0.612   6.528   4.284
 6658  LAT   Au 7198   0.816   6.528   4.080
 6659  LAT   Au 7199   1.020   6.732   4.080
 6660  LAT   Au 7200   0.816   6.732   4.284
 6661  LAT   Au 7201   1.020   6.528   4.284
 6662  LAT   Au 7202   1.224   6.528   4.080
 6663  LAT   Au 7203   1.428   6.732   4.080
 6664  LAT   Au 7204   1.224   6.732   4.284
 6665  LAT   Au 7205   1.428   6.528   4.284
 6666  LAT   Au 7206   1.632   6.528   4.080
 6667  LAT   Au 7207   1.836   6.732   4.080
 6668  LAT   Au 7208   1.632   6.732   4.284
 6669  LAT   Au 7209   1.836   6.528   4.284
 6670  LAT   Au 7210   2.040   6.528   4.080
 6671  LAT   Au 7211   2.244   6.732   4.080
 6672  LAT   Au 7212   2.040   6.732   4.284
 6673  LAT   Au 7213   2.244   6.528   4.284
 6674  LAT   Au 7214   2.448   6.528   4.080
 6675  LAT   Au 7215   2.652   6.732   4.080
 6676  LAT   Au 7216   2.448   6.732   4.284
 6677  LAT   Au 7217   2.652   6.528   4.284
 6678  LAT   Au 7218   2.856   6.528   4.080
 6679  LAT   Au 7219   3.060   6.732   4.080
 6680  LAT   Au 7220   2.856   6.732   4.284
 6681  LAT   Au 7221   3.468   6.732   4.080
 6682  LAT   Au 7222   3.264   6.732   4.284
 6683  LAT   Au 7223   3.876   6.732   4.080
 6684  LAT   Au 7224   3.672   6.732   4.284
 6685  LAT   Au 7225   4.284   6.732   4.080
 6686  LAT   Au 7226   4.080   6.732   4.284
 6687  LAT   Au 7227   4.284   6.528   4.284
 6688  LAT   Au 7228   4.488   6.528   4.080
 6689  LAT   Au 7229   4.692   6.732   4.080
 6690  LAT   Au 7230   4.488   6.732   4.284
 6691  LAT   Au 7231   4.692   6.528   4.284
 6692  LAT   Au 7232   4.896   6.528   4.080
 6693  LAT   Au 7233   5.100   6.732   4.080
 6694  LAT   Au 7234   4.896   6.732   4.284
 6695  LAT   Au 7235   5.100   6.528   4.284
 6696  LAT   Au 7236   5.304   6.528   4.080
 6697  LAT   Au 7237   5.508   6.732   4.080
 6698  LAT   Au 7238   5.304   6.732   4.284
 6699  LAT   Au 7239   5.508   6.528   4.284
 6700  LAT   Au 7240   5.712   6.528   4.080
 6701  LAT   Au 7241   5.916   6.732   4.080
 6702  LAT   Au 7242   5.712   6.732   4.284
 6703  LAT   Au 7243   5.916   6.528   4.284
 6704  LAT   Au 7244   6.120   6.528   4.080
 6705  LAT   Au 7245   6.324   6.732   4.080
 6706  LAT   Au 7246   6.120   6.732   4.284
 6707  LAT   Au 7247   6.324   6.528   4.284
 6708  LAT   Au 7248   6.528   6.528   4.080
 6709  LAT   Au 7249   6.732   6.732   4.080
 6710  LAT   Au 7250   6.528   6.732   4.284
 6711  LAT   Au 7251   6.732   6.528   4.284
 6712  LAT   Au 7252   6.936   6.528   4.080
 6713  LAT   Au 7253   7.140   6.732   4.080
 6714  LAT   Au 7254   6.936   6.732   4.284
 6715  LAT   Au 7255   7.140   6.528   4.284
 6716  LAT   Au 7256   0.000   6.936   4.080
 6717  LAT   Au 7257   0.204   7.140   4.080
 6718  LAT   Au 7258   0.000   7.140   4.284
 6719  LAT   Au 7259   0.204   6.936   4.284
 6720  LAT   Au 7260   0.408   6.936   4.080
 6721  LAT   Au 7261   0.612   7.140   4.080
 6722  LAT   Au 7262   0.408   7.140   4.284
 6723  LAT   Au 7263   0.612   6.936   4.284
 6724  LAT   Au 7264   0.816   6.936   4.080
 6725  LAT   Au 7265   1.020   7.140   4.080
 6726  LAT   Au 7266   0.816   7.140   4.284
 6727  LAT   Au 7267   1.020   6.936   4.284
 6728  LAT   Au 7268   1.224   6.936   4.080
 6729  LAT   Au 7269   1.428   7.140   4.080
 6730  LAT   Au 7270   1.224   7.140   4.284
 6731  LAT   Au 7271   1.428   6.936   4.284
 6732  LAT   Au 7272   1.632   6.936   4.080
 6733  LAT   Au 7273   1.836   7.140   4.080
 6734  LAT   Au 7274   1.632   7.140   4.284
 6735  LAT   Au 7275   1.836   6.936   4.284
 6736  LAT   Au 7276   2.040   6.936   4.080
 6737  LAT   Au 7277   2.244   7.140   4.080
 6738  LAT   Au 7278   2.040   7.140   4.284
 6739  LAT   Au 7279   2.244   6.936   4.284
 6740  LAT   Au 7280   2.448   6.936   4.080
 6741  LAT   Au 7281   2.652   7.140   4.080
 6742  LAT   Au 7282   2.448   7.140   4.284
 6743  LAT   Au 7283   2.652   6.936   4.284
 6744  LAT   Au 7284   2.856   6.936   4.080
 6745  LAT   Au 7285   3.060   7.140   4.080
 6746  LAT   Au 7286   2.856   7.140   4.284
 6747  LAT   Au 7287   3.060   6.936   4.284
 6748  LAT   Au 7288   3.264   6.936   4.080
 6749  LAT   Au 7289   3.468   7.140   4.080
 6750  LAT   Au 7290   3.264   7.140   4.284
 6751  LAT   Au 7291   3.468   6.936   4.284
 6752  LAT   Au 7292   3.672   6.936   4.080
 6753  LAT   Au 7293   3.876   7.140   4.080
 6754  LAT   Au 7294   3.672   7.140   4.284
 6755  LAT   Au 7295   3.876   6.936   4.284
 6756  LAT   Au 7296   4.080   6.936   4.080
 6757  LAT   Au 7297   4.284   7.140   4.080
 6758  LAT   Au 7298   4.080   7.140   4.284
 6759  LAT   Au 7299   4.284   6.936   4.284
 6760  LAT   Au 7300   4.488   6.936   4.080
 6761  LAT   Au 7301   4.692   7.140   4.080
 6762  LAT   Au 7302   4.488   7.140   4.284
 6763  LAT   Au 7303   4.692   6.936   4.284
 6764  LAT   Au 7304   4.896   6.936   4.080
 6765  LAT   Au 7305   5.100   7.140   4.080
 6766  LAT   Au 7306   4.896   7.140   4.284
 6767  LAT   Au 7307   5.100   6.936   4.284
 6768  LAT   Au 7308   5.304   6.936   4.080
 6769  LAT   Au 7309   5.508   7.140   4.080
 6770  LAT   Au 7310   5.304   7.140   4.284
 6771  LAT   Au 7311   5.508   6.936   4.284
 6772  LAT   Au 7312   5.712   6.936   4.080
 6773  LAT   Au 7313   5.916   7.140   4.080
 6774  LAT   Au 7314   5.712   7.140   4.284
 6775  LAT   Au 7315   5.916   6.936   4.284
 6776  LAT   Au 7316   6.120   6.936   4.080
 6777  LAT   Au 7317   6.324   7.140   4.080
 6778  LAT   Au 7318   6.120   7.140   4.284
 6779  LAT   Au 7319   6.324   6.936   4.284
 6780  LAT   Au 7320   6.528   6.936   4.080
 6781  LAT   Au 7321   6.732   7.140   4.080
 6782  LAT   Au 7322   6.528   7.140   4.284
 6783  LAT   Au 7323   6.732   6.936   4.284
 6784  LAT   Au 7324   6.936   6.936   4.080
 6785  LAT   Au 7325   7.140   7.140   4.080
 6786  LAT   Au 7326   6.936   7.140   4.284
 6787  LAT   Au 7327   7.140   6.936   4.284
 6788  LAT   Au 7328   0.000   0.000   4.488
 6789  LAT   Au 7329   0.204   0.204   4.488
 6790  LAT   Au 7330   0.000   0.204   4.692
 6791  LAT   Au 7331   0.204   0.000   4.692
 6792  LAT   Au 7332   0.408   0.000   4.488
 6793  LAT   Au 7333   0.612   0.204   4.488
 6794  LAT   Au 7334   0.408   0.204   4.692
 6795  LAT   Au 7335   0.612   0.000   4.692
 6796  LAT   Au 7336   0.816   0.000   4.488
 6797  LAT   Au 7337   1.020   0.204   4.488
 6798  LAT   Au 7338   0.816   0.204   4.692
 6799  LAT   Au 7339   1.020   0.000   4.692
 6800  LAT   Au 7340   1.224   0.000   4.488
 6801  LAT   Au 7341   1.428   0.204   4.488
 6802  LAT   Au 7342   1.224   0.204   4.692
 6803  LAT   Au 7343   1.428   0.000   4.692
 6804  LAT   Au 7344   1.632   0.000   4.488
 6805  LAT   Au 7345   1.836   0.204   4.488
 6806  LAT   Au 7346   1.632   0.204   4.692
 6807  LAT   Au 7347   1.836   0.000   4.692
 6808  LAT   Au 7348   2.040   0.000   4.488
 6809  LAT   Au 7349   2.244   0.204   4.488
 6810  LAT   Au 7350   2.040   0.204   4.692
 6811  LAT   Au 7351   2.244   0.000   4.692
 6812  LAT   Au 7352   2.448   0.000   4.488
 6813  LAT   Au 7353   2.652   0.204   4.488
 6814  LAT   Au 7354   2.448   0.204   4.692
 6815  LAT   Au 7355   2.652   0.000   4.692
 6816  LAT   Au 7356   2.856   0.000   4.488
 6817  LAT   Au 7357   3.060   0.204   4.488
 6818  LAT   Au 7358   2.856   0.204   4.692
 6819  LAT   Au 7359   3.060   0.000   4.692
 6820  LAT   Au 7360   3.264   0.000   4.488
 6821  LAT   Au 7361   3.468   0.204   4.488
 6822  LAT   Au 7362   3.264   0.204   4.692
 6823  LAT   Au 7363   3.468   0.000   4.692
 6824  LAT   Au 7364   3.672   0.000   4.488
 6825  LAT   Au 7365   3.876   0.204   4.488
 6826  LAT   Au 7366   3.672   0.204   4.692
 6827  LAT   Au 7367   3.876   0.000   4.692
 6828  LAT   Au 7368   4.080   0.000   4.488
 6829  LAT   Au 7369   4.284   0.204   4.488
 6830  LAT   Au 7370   4.080   0.204   4.692
 6831  LAT   Au 7371   4.284   0.000   4.692
 6832  LAT   Au 7372   4.488   0.000   4.488
 6833  LAT   Au 7373   4.692   0.204   4.488
 6834  LAT   Au 7374   4.488   0.204   4.692
 6835  LAT   Au 7375   4.692   0.000   4.692
 6836  LAT   Au 7376   4.896   0.000   4.488
 6837  LAT   Au 7377   5.100   0.204   4.488
 6838  LAT   Au 7378   4.896   0.204   4.692
 6839  LAT   Au 7379   5.100   0.000   4.692
 6840  LAT   Au 7380   5.304   0.000   4.488
 6841  LAT   Au 7381   5.508   0.204   4.488
 6842  LAT   Au 7382   5.304   0.204   4.692
 6843  LAT   Au 7383   5.508   0.000   4.692
 6844  LAT   Au 7384   5.712   0.000   4.488
 6845  LAT   Au 7385   5.916   0.204   4.488
 6846  LAT   Au 7386   5.712   0.204   4.692
 6847  LAT   Au 7387   5.916   0.000   4.692
 6848  LAT   Au 7388   6.120   0.000   4.488
 6849  LAT   Au 7389   6.324   0.204   4.488
 6850  LAT   Au 7390   6.120   0.204   4.692
 6851  LAT   Au 7391   6.324   0.000   4.692
 6852  LAT   Au 7392   6.528   0.000   4.488
 6853  LAT   Au 7393   6.732   0.204   4.488
 6854  LAT   Au 7394   6.528   0.204   4.692
 6855  LAT   Au 7395   6.732   0.000   4.692
 6856  LAT   Au 7396   6.936   0.000   4.488
 6857  LAT   Au 7397   7.140   0.204   4.488
 6858  LAT   Au 7398   6.936   0.204   4.692
 6859  LAT   Au 7399   7.140   0.000   4.692
 6860  LAT   Au 7400   0.000   0.408   4.488
 6861  LAT   Au 7401   0.204   0.612   4.488
 6862  LAT   Au 7402   0.000   0.612   4.692
 6863  LAT   Au 7403   0.204   0.408   4.692
 6864  LAT   Au 7404   0.408   0.408   4.488
 6865  LAT   Au 7405   0.612   0.612   4.488
 6866  LAT   Au 7406   0.408   0.612   4.692
 6867  LAT   Au 7407   0.612   0.408   4.692
 6868  LAT   Au 7408   0.816   0.408   4.488
 6869  LAT   Au 7409   1.020   0.612   4.488
 6870  LAT   Au 7410   0.816   0.612   4.692
 6871  LAT   Au 7411   1.020   0.408   4.692
 6872  LAT   Au 7412   1.224   0.408   4.488
 6873  LAT   Au 7413   1.428   0.612   4.488
 6874  LAT   Au 7414   1.224   0.612   4.692
 6875  LAT   Au 7415   1.428   0.408   4.692
 6876  LAT   Au 7416   1.632   0.408   4.488
 6877  LAT   Au 7417   1.836   0.612   4.488
 6878  LAT   Au 7418   1.632   0.612   4.692
 6879  LAT   Au 7419   1.836   0.408   4.692
 6880  LAT   Au 7420   2.040   0.408   4.488
 6881  LAT   Au 7421   2.244   0.612   4.488
 6882  LAT   Au 7422   2.040   0.612   4.692
 6883  LAT   Au 7423   2.244   0.408   4.692
 6884  LAT   Au 7424   2.448   0.408   4.488
 6885  LAT   Au 7425   2.652   0.612   4.488
 6886  LAT   Au 7426   2.448   0.612   4.692
 6887  LAT   Au 7427   2.652   0.408   4.692
 6888  LAT   Au 7428   2.856   0.408   4.488
 6889  LAT   Au 7429   3.060   0.612   4.488
 6890  LAT   Au 7430   2.856   0.612   4.692
 6891  LAT   Au 7431   3.060   0.408   4.692
 6892  LAT   Au 7432   3.264   0.408   4.488
 6893  LAT   Au 7433   3.264   0.612   4.692
 6894  LAT   Au 7434   3.468   0.408   4.692
 6895  LAT   Au 7435   3.672   0.408   4.488
 6896  LAT   Au 7436   3.876   0.408   4.692
 6897  LAT   Au 7437   4.080   0.408   4.488
 6898  LAT   Au 7438   4.284   0.612   4.488
 6899  LAT   Au 7439   4.080   0.612   4.692
 6900  LAT   Au 7440   4.284   0.408   4.692
 6901  LAT   Au 7441   4.488   0.408   4.488
 6902  LAT   Au 7442   4.692   0.612   4.488
 6903  LAT   Au 7443   4.488   0.612   4.692
 6904  LAT   Au 7444   4.692   0.408   4.692
 6905  LAT   Au 7445   4.896   0.408   4.488
 6906  LAT   Au 7446   5.100   0.612   4.488
 6907  LAT   Au 7447   4.896   0.612   4.692
 6908  LAT   Au 7448   5.100   0.408   4.692
 6909  LAT   Au 7449   5.304   0.408   4.488
 6910  LAT   Au 7450   5.508   0.612   4.488
 6911  LAT   Au 7451   5.304   0.612   4.692
 6912  LAT   Au 7452   5.508   0.408   4.692
 6913  LAT   Au 7453   5.712   0.408   4.488
 6914  LAT   Au 7454   5.916   0.612   4.488
 6915  LAT   Au 7455   5.712   0.612   4.692
 6916  LAT   Au 7456   5.916   0.408   4.692
 6917  LAT   Au 7457   6.120   0.408   4.488
 6918  LAT   Au 7458   6.324   0.612   4.488
 6919  LAT   Au 7459   6.120   0.612   4.692
 6920  LAT   Au 7460   6.324   0.408   4.692
 6921  LAT   Au 7461   6.528   0.408   4.488
 6922  LAT   Au 7462   6.732   0.612   4.488
 6923  LAT   Au 7463   6.528   0.612   4.692
 6924  LAT   Au 7464   6.732   0.408   4.692
 6925  LAT   Au 7465   6.936   0.408   4.488
 6926  LAT   Au 7466   7.140   0.612   4.488
 6927  LAT   Au 7467   6.936   0.612   4.692
 6928  LAT   Au 7468   7.140   0.408   4.692
 6929  LAT   Au 7469   0.000   0.816   4.488
 6930  LAT   Au 7470   0.204   1.020   4.488
 6931  LAT   Au 7471   0.000   1.020   4.692
 6932  LAT   Au 7472   0.204   0.816   4.692
 6933  LAT   Au 7473   0.408   0.816   4.488
 6934  LAT   Au 7474   0.612   1.020   4.488
 6935  LAT   Au 7475   0.408   1.020   4.692
 6936  LAT   Au 7476   0.612   0.816   4.692
 6937  LAT   Au 7477   0.816   0.816   4.488
 6938  LAT   Au 7478   1.020   1.020   4.488
 6939  LAT   Au 7479   0.816   1.020   4.692
 6940  LAT   Au 7480   1.020   0.816   4.692
 6941  LAT   Au 7481   1.224   0.816   4.488
 6942  LAT   Au 7482   1.428   1.020   4.488
 6943  LAT   Au 7483   1.224   1.020   4.692
 6944  LAT   Au 7484   1.428   0.816   4.692
 6945  LAT   Au 7485   1.632   0.816   4.488
 6946  LAT   Au 7486   1.836   1.020   4.488
 6947  LAT   Au 7487   1.632   1.020   4.692
 6948  LAT   Au 7488   1.836   0.816   4.692
 6949  LAT   Au 7489   2.040   0.816   4.488
 6950  LAT   Au 7490   2.040   1.020   4.692
 6951  LAT   Au 7491   2.244   0.816   4.692
 6952  LAT   Au 7492   2.448   0.816   4.488
 6953  LAT   Au 7493   4.896   0.816   4.488
 6954  LAT   Au 7494   5.100   0.816   4.692
 6955  LAT   Au 7495   5.304   0.816   4.488
 6956  LAT   Au 7496   5.508   1.020   4.488
 6957  LAT   Au 7497   5.304   1.020   4.692
 6958  LAT   Au 7498   5.508   0.816   4.692
 6959  LAT   Au 7499   5.712   0.816   4.488
 6960  LAT   Au 7500   5.916   1.020   4.488
 6961  LAT   Au 7501   5.712   1.020   4.692
 6962  LAT   Au 7502   5.916   0.816   4.692
 6963  LAT   Au 7503   6.120   0.816   4.488
 6964  LAT   Au 7504   6.324   1.020   4.488
 6965  LAT   Au 7505   6.120   1.020   4.692
 6966  LAT   Au 7506   6.324   0.816   4.692
 6967  LAT   Au 7507   6.528   0.816   4.488
 6968  LAT   Au 7508   6.732   1.020   4.488
 6969  LAT   Au 7509   6.528   1.020   4.692
 6970  LAT   Au 7510   6.732   0.816   4.692
 6971  LAT   Au 7511   6.936   0.816   4.488
 6972  LAT   Au 7512   7.140   1.020   4.488
 6973  LAT   Au 7513   6.936   1.020   4.692
 6974  LAT   Au 7514   7.140   0.816   4.692
 6975  LAT   Au 7515   0.000   1.224   4.488
 6976  LAT   Au 7516   0.204   1.428   4.488
 6977  LAT   Au 7517   0.000   1.428   4.692
 6978  LAT   Au 7518   0.204   1.224   4.692
 6979  LAT   Au 7519   0.408   1.224   4.488
 6980  LAT   Au 7520   0.612   1.428   4.488
 6981  LAT   Au 7521   0.408   1.428   4.692
 6982  LAT   Au 7522   0.612   1.224   4.692
 6983  LAT   Au 7523   0.816   1.224   4.488
 6984  LAT   Au 7524   1.020   1.428   4.488
 6985  LAT   Au 7525   0.816   1.428   4.692
 6986  LAT   Au 7526   1.020   1.224   4.692
 6987  LAT   Au 7527   1.224   1.224   4.488
 6988  LAT   Au 7528   1.428   1.428   4.488
 6989  LAT   Au 7529   1.224   1.428   4.692
 6990  LAT   Au 7530   1.428   1.224   4.692
 6991  LAT   Au 7531   1.632   1.224   4.488
 6992  LAT   Au 7532   5.508   1.224   4.692
 6993  LAT   Au 7533   5.712   1.224   4.488
 6994  LAT   Au 7534   5.916   1.428   4.488
 6995  LAT   Au 7535   5.712   1.428   4.692
 6996  LAT   Au 7536   5.916   1.224   4.692
 6997  LAT   Au 7537   6.120   1.224   4.488
 6998  LAT   Au 7538   6.324   1.428   4.488
 6999  LAT   Au 7539   6.120   1.428   4.692
 7000  LAT   Au 7540   6.324   1.224   4.692
 7001  LAT   Au 7541   6.528   1.224   4.488
 7002  LAT   Au 7542   6.732   1.428   4.488
 7003  LAT   Au 7543   6.528   1.428   4.692
 7004  LAT   Au 7544   6.732   1.224   4.692
 7005  LAT   Au 7545   6.936   1.224   4.488
 7006  LAT   Au 7546   7.140   1.428   4.488
 7007  LAT   Au 7547   6.936   1.428   4.692
 7008  LAT   Au 7548   7.140   1.224   4.692
 7009  LAT   Au 7549   0.000   1.632   4.488
 7010  LAT   Au 7550   0.204   1.836   4.488
 7011  LAT   Au 7551   0.000   1.836   4.692
 7012  LAT   Au 7552   0.204   1.632   4.692
 7013  LAT   Au 7553   0.408   1.632   4.488
 7014  LAT   Au 7554   0.612   1.836   4.488
 7015  LAT   Au 7555   0.408   1.836   4.692
 7016  LAT   Au 7556   0.612   1.632   4.692
 7017  LAT   Au 7557   0.816   1.632   4.488
 7018  LAT   Au 7558   1.020   1.836   4.488
 7019  LAT   Au 7559   0.816   1.836   4.692
 7020  LAT   Au 7560   1.020   1.632   4.692
 7021  LAT   Au 7561   1.224   1.632   4.488
 7022  LAT   Au 7562   5.916   1.632   4.692
 7023  LAT   Au 7563   6.120   1.632   4.488
 7024  LAT   Au 7564   6.324   1.836   4.488
 7025  LAT   Au 7565   6.120   1.836   4.692
 7026  LAT   Au 7566   6.324   1.632   4.692
 7027  LAT   Au 7567   6.528   1.632   4.488
 7028  LAT   Au 7568   6.732   1.836   4.488
 7029  LAT   Au 7569   6.528   1.836   4.692
 7030  LAT   Au 7570   6.732   1.632   4.692
 7031  LAT   Au 7571   6.936   1.632   4.488
 7032  LAT   Au 7572   7.140   1.836   4.488
 7033  LAT   Au 7573   6.936   1.836   4.692
 7034  LAT   Au 7574   7.140   1.632   4.692
 7035  LAT   Au 7575   0.000   2.040   4.488
 7036  LAT   Au 7576   0.204   2.244   4.488
 7037  LAT   Au 7577   0.000   2.244   4.692
 7038  LAT   Au 7578   0.204   2.040   4.692
 7039  LAT   Au 7579   0.408   2.040   4.488
 7040  LAT   Au 7580   0.612   2.244   4.488
 7041  LAT   Au 7581   0.408   2.244   4.692
 7042  LAT   Au 7582   0.612   2.040   4.692
 7043  LAT   Au 7583   0.816   2.040   4.488
 7044  LAT   Au 7584   0.816   2.244   4.692
 7045  LAT   Au 7585   1.020   2.040   4.692
 7046  LAT   Au 7586   6.324   2.244   4.488
 7047  LAT   Au 7587   6.324   2.040   4.692
 7048  LAT   Au 7588   6.528   2.040   4.488
 7049  LAT   Au 7589   6.732   2.244   4.488
 7050  LAT   Au 7590   6.528   2.244   4.692
 7051  LAT   Au 7591   6.732   2.040   4.692
 7052  LAT   Au 7592   6.936   2.040   4.488
 7053  LAT   Au 7593   7.140   2.244   4.488
 7054  LAT   Au 7594   6.936   2.244   4.692
 7055  LAT   Au 7595   7.140   2.040   4.692
 7056  LAT   Au 7596   0.000   2.448   4.488
 7057  LAT   Au 7597   0.204   2.652   4.488
 7058  LAT   Au 7598   0.000   2.652   4.692
 7059  LAT   Au 7599   0.204   2.448   4.692
 7060  LAT   Au 7600   0.408   2.448   4.488
 7061  LAT   Au 7601   0.612   2.652   4.488
 7062  LAT   Au 7602   0.408   2.652   4.692
 7063  LAT   Au 7603   0.612   2.448   4.692
 7064  LAT   Au 7604   0.816   2.448   4.488
 7065  LAT   Au 7605   6.528   2.448   4.488
 7066  LAT   Au 7606   6.732   2.652   4.488
 7067  LAT   Au 7607   6.528   2.652   4.692
 7068  LAT   Au 7608   6.732   2.448   4.692
 7069  LAT   Au 7609   6.936   2.448   4.488
 7070  LAT   Au 7610   7.140   2.652   4.488
 7071  LAT   Au 7611   6.936   2.652   4.692
 7072  LAT   Au 7612   7.140   2.448   4.692
 7073  LAT   Au 7613   0.000   2.856   4.488
 7074  LAT   Au 7614   0.204   3.060   4.488
 7075  LAT   Au 7615   0.000   3.060   4.692
 7076  LAT   Au 7616   0.204   2.856   4.692
 7077  LAT   Au 7617   0.408   2.856   4.488
 7078  LAT   Au 7618   0.612   3.060   4.488
 7079  LAT   Au 7619   0.408   3.060   4.692
 7080  LAT   Au 7620   0.612   2.856   4.692
 7081  LAT   Au 7621   6.528   2.856   4.488
 7082  LAT   Au 7622   6.732   3.060   4.488
 7083  LAT   Au 7623   6.732   2.856   4.692
 7084  LAT   Au 7624   6.936   2.856   4.488
 7085  LAT   Au 7625   7.140   3.060   4.488
 7086  LAT   Au 7626   6.936   3.060   4.692
 7087  LAT   Au 7627   7.140   2.856   4.692
 7088  LAT   Au 7628   0.000   3.264   4.488
 7089  LAT   Au 7629   0.204   3.468   4.488
 7090  LAT   Au 7630   0.000   3.468   4.692
 7091  LAT   Au 7631   0.204   3.264   4.692
 7092  LAT   Au 7632   0.408   3.264   4.488
 7093  LAT   Au 7633   0.408   3.468   4.692
 7094  LAT   Au 7634   0.612   3.264   4.692
 7095  LAT   Au 7635   6.732   3.468   4.488
 7096  LAT   Au 7636   6.732   3.264   4.692
 7097  LAT   Au 7637   6.936   3.264   4.488
 7098  LAT   Au 7638   7.140   3.468   4.488
 7099  LAT   Au 7639   6.936   3.468   4.692
 7100  LAT   Au 7640   7.140   3.264   4.692
 7101  LAT   Au 7641   0.000   3.672   4.488
 7102  LAT   Au 7642   0.204   3.876   4.488
 7103  LAT   Au 7643   0.000   3.876   4.692
 7104  LAT   Au 7644   0.204   3.672   4.692
 7105  LAT   Au 7645   0.408   3.672   4.488
 7106  LAT   Au 7646   0.408   3.876   4.692
 7107  LAT   Au 7647   6.732   3.876   4.488
 7108  LAT   Au 7648   6.732   3.672   4.692
 7109  LAT   Au 7649   6.936   3.672   4.488
 7110  LAT   Au 7650   7.140   3.876   4.488
 7111  LAT   Au 7651   6.936   3.876   4.692
 7112  LAT   Au 7652   7.140   3.672   4.692
 7113  LAT   Au 7653   0.000   4.080   4.488
 7114  LAT   Au 7654   0.204   4.284   4.488
 7115  LAT   Au 7655   0.000   4.284   4.692
 7116  LAT   Au 7656   0.204   4.080   4.692
 7117  LAT   Au 7657   0.408   4.080   4.488
 7118  LAT   Au 7658   0.612   4.284   4.488
 7119  LAT   Au 7659   0.408   4.284   4.692
 7120  LAT   Au 7660   0.612   4.080   4.692
 7121  LAT   Au 7661   6.732   4.284   4.488
 7122  LAT   Au 7662   6.528   4.284   4.692
 7123  LAT   Au 7663   6.732   4.080   4.692
 7124  LAT   Au 7664   6.936   4.080   4.488
 7125  LAT   Au 7665   7.140   4.284   4.488
 7126  LAT   Au 7666   6.936   4.284   4.692
 7127  LAT   Au 7667   7.140   4.080   4.692
 7128  LAT   Au 7668   0.000   4.488   4.488
 7129  LAT   Au 7669   0.204   4.692   4.488
 7130  LAT   Au 7670   0.000   4.692   4.692
 7131  LAT   Au 7671   0.204   4.488   4.692
 7132  LAT   Au 7672   0.408   4.488   4.488
 7133  LAT   Au 7673   0.612   4.692   4.488
 7134  LAT   Au 7674   0.408   4.692   4.692
 7135  LAT   Au 7675   0.612   4.488   4.692
 7136  LAT   Au 7676   6.528   4.488   4.488
 7137  LAT   Au 7677   6.732   4.692   4.488
 7138  LAT   Au 7678   6.528   4.692   4.692
 7139  LAT   Au 7679   6.732   4.488   4.692
 7140  LAT   Au 7680   6.936   4.488   4.488
 7141  LAT   Au 7681   7.140   4.692   4.488
 7142  LAT   Au 7682   6.936   4.692   4.692
 7143  LAT   Au 7683   7.140   4.488   4.692
 7144  LAT   Au 7684   0.000   4.896   4.488
 7145  LAT   Au 7685   0.204   5.100   4.488
 7146  LAT   Au 7686   0.000   5.100   4.692
 7147  LAT   Au 7687   0.204   4.896   4.692
 7148  LAT   Au 7688   0.408   4.896   4.488
 7149  LAT   Au 7689   0.612   5.100   4.488
 7150  LAT   Au 7690   0.408   5.100   4.692
 7151  LAT   Au 7691   0.612   4.896   4.692
 7152  LAT   Au 7692   0.816   4.896   4.488
 7153  LAT   Au 7693   0.816   5.100   4.692
 7154  LAT   Au 7694   6.324   5.100   4.488
 7155  LAT   Au 7695   6.324   4.896   4.692
 7156  LAT   Au 7696   6.528   4.896   4.488
 7157  LAT   Au 7697   6.732   5.100   4.488
 7158  LAT   Au 7698   6.528   5.100   4.692
 7159  LAT   Au 7699   6.732   4.896   4.692
 7160  LAT   Au 7700   6.936   4.896   4.488
 7161  LAT   Au 7701   7.140   5.100   4.488
 7162  LAT   Au 7702   6.936   5.100   4.692
 7163  LAT   Au 7703   7.140   4.896   4.692
 7164  LAT   Au 7704   0.000   5.304   4.488
 7165  LAT   Au 7705   0.204   5.508   4.488
 7166  LAT   Au 7706   0.000   5.508   4.692
 7167  LAT   Au 7707   0.204   5.304   4.692
 7168  LAT   Au 7708   0.408   5.304   4.488
 7169  LAT   Au 7709   0.612   5.508   4.488
 7170  LAT   Au 7710   0.408   5.508   4.692
 7171  LAT   Au 7711   0.612   5.304   4.692
 7172  LAT   Au 7712   0.816   5.304   4.488
 7173  LAT   Au 7713   1.020   5.508   4.488
 7174  LAT   Au 7714   0.816   5.508   4.692
 7175  LAT   Au 7715   1.020   5.304   4.692
 7176  LAT   Au 7716   1.224   5.508   4.692
 7177  LAT   Au 7717   5.916   5.508   4.488
 7178  LAT   Au 7718   6.120   5.304   4.488
 7179  LAT   Au 7719   6.324   5.508   4.488
 7180  LAT   Au 7720   6.120   5.508   4.692
 7181  LAT   Au 7721   6.324   5.304   4.692
 7182  LAT   Au 7722   6.528   5.304   4.488
 7183  LAT   Au 7723   6.732   5.508   4.488
 7184  LAT   Au 7724   6.528   5.508   4.692
 7185  LAT   Au 7725   6.732   5.304   4.692
 7186  LAT   Au 7726   6.936   5.304   4.488
 7187  LAT   Au 7727   7.140   5.508   4.488
 7188  LAT   Au 7728   6.936   5.508   4.692
 7189  LAT   Au 7729   7.140   5.304   4.692
 7190  LAT   Au 7730   0.000   5.712   4.488
 7191  LAT   Au 7731   0.204   5.916   4.488
 7192  LAT   Au 7732   0.000   5.916   4.692
 7193  LAT   Au 7733   0.204   5.712   4.692
 7194  LAT   Au 7734   0.408   5.712   4.488
 7195  LAT   Au 7735   0.612   5.916   4.488
 7196  LAT   Au 7736   0.408   5.916   4.692
 7197  LAT   Au 7737   0.612   5.712   4.692
 7198  LAT   Au 7738   0.816   5.712   4.488
 7199  LAT   Au 7739   1.020   5.916   4.488
 7200  LAT   Au 7740   0.816   5.916   4.692
 7201  LAT   Au 7741   1.020   5.712   4.692
 7202  LAT   Au 7742   1.224   5.712   4.488
 7203  LAT   Au 7743   1.428   5.916   4.488
 7204  LAT   Au 7744   1.224   5.916   4.692
 7205  LAT   Au 7745   1.428   5.712   4.692
 7206  LAT   Au 7746   1.632   5.916   4.692
 7207  LAT   Au 7747   5.508   5.916   4.488
 7208  LAT   Au 7748   5.916   5.916   4.488
 7209  LAT   Au 7749   5.712   5.916   4.692
 7210  LAT   Au 7750   5.916   5.712   4.692
 7211  LAT   Au 7751   6.120   5.712   4.488
 7212  LAT   Au 7752   6.324   5.916   4.488
 7213  LAT   Au 7753   6.120   5.916   4.692
 7214  LAT   Au 7754   6.324   5.712   4.692
 7215  LAT   Au 7755   6.528   5.712   4.488
 7216  LAT   Au 7756   6.732   5.916   4.488
 7217  LAT   Au 7757   6.528   5.916   4.692
 7218  LAT   Au 7758   6.732   5.712   4.692
 7219  LAT   Au 7759   6.936   5.712   4.488
 7220  LAT   Au 7760   7.140   5.916   4.488
 7221  LAT   Au 7761   6.936   5.916   4.692
 7222  LAT   Au 7762   7.140   5.712   4.692
 7223  LAT   Au 7763   0.000   6.120   4.488
 7224  LAT   Au 7764   0.204   6.324   4.488
 7225  LAT   Au 7765   0.000   6.324   4.692
 7226  LAT   Au 7766   0.204   6.120   4.692
 7227  LAT   Au 7767   0.408   6.120   4.488
 7228  LAT   Au 7768   0.612   6.324   4.488
 7229  LAT   Au 7769   0.408   6.324   4.692
 7230  LAT   Au 7770   0.612   6.120   4.692
 7231  LAT   Au 7771   0.816   6.120   4.488
 7232  LAT   Au 7772   1.020   6.324   4.488
 7233  LAT   Au 7773   0.816   6.324   4.692
 7234  LAT   Au 7774   1.020   6.120   4.692
 7235  LAT   Au 7775   1.224   6.120   4.488
 7236  LAT   Au 7776   1.428   6.324   4.488
 7237  LAT   Au 7777   1.224   6.324   4.692
 7238  LAT   Au 7778   1.428   6.120   4.692
 7239  LAT   Au 7779   1.632   6.120   4.488
 7240  LAT   Au 7780   1.836   6.324   4.488
 7241  LAT   Au 7781   1.632   6.324   4.692
 7242  LAT   Au 7782   1.836   6.120   4.692
 7243  LAT   Au 7783   2.244   6.324   4.488
 7244  LAT   Au 7784   2.040   6.324   4.692
 7245  LAT   Au 7785   5.100   6.324   4.488
 7246  LAT   Au 7786   4.896   6.324   4.692
 7247  LAT   Au 7787   5.304   6.120   4.488
 7248  LAT   Au 7788   5.508   6.324   4.488
 7249  LAT   Au 7789   5.304   6.324   4.692
 7250  LAT   Au 7790   5.508   6.120   4.692
 7251  LAT   Au 7791   5.712   6.120   4.488
 7252  LAT   Au 7792   5.916   6.324   4.488
 7253  LAT   Au 7793   5.712   6.324   4.692
 7254  LAT   Au 7794   5.916   6.120   4.692
 7255  LAT   Au 7795   6.120   6.120   4.488
 7256  LAT   Au 7796   6.324   6.324   4.488
 7257  LAT   Au 7797   6.120   6.324   4.692
 7258  LAT   Au 7798   6.324   6.120   4.692
 7259  LAT   Au 7799   6.528   6.120   4.488
 7260  LAT   Au 7800   6.732   6.324   4.488
 7261  LAT   Au 7801   6.528   6.324   4.692
 7262  LAT   Au 7802   6.732   6.120   4.692
 7263  LAT   Au 7803   6.936   6.120   4.488
 7264  LAT   Au 7804   7.140   6.324   4.488
 7265  LAT   Au 7805   6.936   6.324   4.692
 7266  LAT   Au 7806   7.140   6.120   4.692
 7267  LAT   Au 7807   0.000   6.528   4.488
 7268  LAT   Au 7808   0.204   6.732   4.488
 7269  LAT   Au 7809   0.000   6.732   4.692
 7270  LAT   Au 7810   0.204   6.528   4.692
 7271  LAT   Au 7811   0.408   6.528   4.488
 7272  LAT   Au 7812   0.612   6.732   4.488
 7273  LAT   Au 7813   0.408   6.732   4.692
 7274  LAT   Au 7814   0.612   6.528   4.692
 7275  LAT   Au 7815   0.816   6.528   4.488
 7276  LAT   Au 7816   1.020   6.732   4.488
 7277  LAT   Au 7817   0.816   6.732   4.692
 7278  LAT   Au 7818   1.020   6.528   4.692
 7279  LAT   Au 7819   1.224   6.528   4.488
 7280  LAT   Au 7820   1.428   6.732   4.488
 7281  LAT   Au 7821   1.224   6.732   4.692
 7282  LAT   Au 7822   1.428   6.528   4.692
 7283  LAT   Au 7823   1.632   6.528   4.488
 7284  LAT   Au 7824   1.836   6.732   4.488
 7285  LAT   Au 7825   1.632   6.732   4.692
 7286  LAT   Au 7826   1.836   6.528   4.692
 7287  LAT   Au 7827   2.040   6.528   4.488
 7288  LAT   Au 7828   2.244   6.732   4.488
 7289  LAT   Au 7829   2.040   6.732   4.692
 7290  LAT   Au 7830   2.244   6.528   4.692
 7291  LAT   Au 7831   2.448   6.528   4.488
 7292  LAT   Au 7832   2.652   6.732   4.488
 7293  LAT   Au 7833   2.448   6.732   4.692
 7294  LAT   Au 7834   2.652   6.528   4.692
 7295  LAT   Au 7835   2.856   6.528   4.488
 7296  LAT   Au 7836   3.060   6.732   4.488
 7297  LAT   Au 7837   2.856   6.732   4.692
 7298  LAT   Au 7838   3.468   6.732   4.488
 7299  LAT   Au 7839   3.264   6.732   4.692
 7300  LAT   Au 7840   3.876   6.732   4.488
 7301  LAT   Au 7841   3.672   6.732   4.692
 7302  LAT   Au 7842   4.284   6.732   4.488
 7303  LAT   Au 7843   4.080   6.732   4.692
 7304  LAT   Au 7844   4.284   6.528   4.692
 7305  LAT   Au 7845   4.488   6.528   4.488
 7306  LAT   Au 7846   4.692   6.732   4.488
 7307  LAT   Au 7847   4.488   6.732   4.692
 7308  LAT   Au 7848   4.692   6.528   4.692
 7309  LAT   Au 7849   4.896   6.528   4.488
 7310  LAT   Au 7850   5.100   6.732   4.488
 7311  LAT   Au 7851   4.896   6.732   4.692
 7312  LAT   Au 7852   5.100   6.528   4.692
 7313  LAT   Au 7853   5.304   6.528   4.488
 7314  LAT   Au 7854   5.508   6.732   4.488
 7315  LAT   Au 7855   5.304   6.732   4.692
 7316  LAT   Au 7856   5.508   6.528   4.692
 7317  LAT   Au 7857   5.712   6.528   4.488
 7318  LAT   Au 7858   5.916   6.732   4.488
 7319  LAT   Au 7859   5.712   6.732   4.692
 7320  LAT   Au 7860   5.916   6.528   4.692
 7321  LAT   Au 7861   6.120   6.528   4.488
 7322  LAT   Au 7862   6.324   6.732   4.488
 7323  LAT   Au 7863   6.120   6.732   4.692
 7324  LAT   Au 7864   6.324   6.528   4.692
 7325  LAT   Au 7865   6.528   6.528   4.488
 7326  LAT   Au 7866   6.732   6.732   4.488
 7327  LAT   Au 7867   6.528   6.732   4.692
 7328  LAT   Au 7868   6.732   6.528   4.692
 7329  LAT   Au 7869   6.936   6.528   4.488
 7330  LAT   Au 7870   7.140   6.732   4.488
 7331  LAT   Au 7871   6.936   6.732   4.692
 7332  LAT   Au 7872   7.140   6.528   4.692
 7333  LAT   Au 7873   0.000   6.936   4.488
 7334  LAT   Au 7874   0.204   7.140   4.488
 7335  LAT   Au 7875   0.000   7.140   4.692
 7336  LAT   Au 7876   0.204   6.936   4.692
 7337  LAT   Au 7877   0.408   6.936   4.488
 7338  LAT   Au 7878   0.612   7.140   4.488
 7339  LAT   Au 7879   0.408   7.140   4.692
 7340  LAT   Au 7880   0.612   6.936   4.692
 7341  LAT   Au 7881   0.816   6.936   4.488
 7342  LAT   Au 7882   1.020   7.140   4.488
 7343  LAT   Au 7883   0.816   7.140   4.692
 7344  LAT   Au 7884   1.020   6.936   4.692
 7345  LAT   Au 7885   1.224   6.936   4.488
 7346  LAT   Au 7886   1.428   7.140   4.488
 7347  LAT   Au 7887   1.224   7.140   4.692
 7348  LAT   Au 7888   1.428   6.936   4.692
 7349  LAT   Au 7889   1.632   6.936   4.488
 7350  LAT   Au 7890   1.836   7.140   4.488
 7351  LAT   Au 7891   1.632   7.140   4.692
 7352  LAT   Au 7892   1.836   6.936   4.692
 7353  LAT   Au 7893   2.040   6.936   4.488
 7354  LAT   Au 7894   2.244   7.140   4.488
 7355  LAT   Au 7895   2.040   7.140   4.692
 7356  LAT   Au 7896   2.244   6.936   4.692
 7357  LAT   Au 7897   2.448   6.936   4.488
 7358  LAT   Au 7898   2.652   7.140   4.488
 7359  LAT   Au 7899   2.448   7.140   4.692
 7360  LAT   Au 7900   2.652   6.936   4.692
 7361  LAT   Au 7901   2.856   6.936   4.488
 7362  LAT   Au 7902   3.060   7.140   4.488
 7363  LAT   Au 7903   2.856   7.140   4.692
 7364  LAT   Au 7904   3.060   6.936   4.692
 7365  LAT   Au 7905   3.264   6.936   4.488
 7366  LAT   Au 7906   3.468   7.140   4.488
 7367  LAT   Au 7907   3.264   7.140   4.692
 7368  LAT   Au 7908   3.468   6.936   4.692
 7369  LAT   Au 7909   3.672   6.936   4.488
 7370  LAT   Au 7910   3.876   7.140   4.488
 7371  LAT   Au 7911   3.672   7.140   4.692
 7372  LAT   Au 7912   3.876   6.936   4.692
 7373  LAT   Au 7913   4.080   6.936   4.488
 7374  LAT   Au 7914   4.284   7.140   4.488
 7375  LAT   Au 7915   4.080   7.140   4.692
 7376  LAT   Au 7916   4.284   6.936   4.692
 7377  LAT   Au 7917   4.488   6.936   4.488
 7378  LAT   Au 7918   4.692   7.140   4.488
 7379  LAT   Au 7919   4.488   7.140   4.692
 7380  LAT   Au 7920   4.692   6.936   4.692
 7381  LAT   Au 7921   4.896   6.936   4.488
 7382  LAT   Au 7922   5.100   7.140   4.488
 7383  LAT   Au 7923   4.896   7.140   4.692
 7384  LAT   Au 7924   5.100   6.936   4.692
 7385  LAT   Au 7925   5.304   6.936   4.488
 7386  LAT   Au 7926   5.508   7.140   4.488
 7387  LAT   Au 7927   5.304   7.140   4.692
 7388  LAT   Au 7928   5.508   6.936   4.692
 7389  LAT   Au 7929   5.712   6.936   4.488
 7390  LAT   Au 7930   5.916   7.140   4.488
 7391  LAT   Au 7931   5.712   7.140   4.692
 7392  LAT   Au 7932   5.916   6.936   4.692
 7393  LAT   Au 7933   6.120   6.936   4.488
 7394  LAT   Au 7934   6.324   7.140   4.488
 7395  LAT   Au 7935   6.120   7.140   4.692
 7396  LAT   Au 7936   6.324   6.936   4.692
 7397  LAT   Au 7937   6.528   6.936   4.488
 7398  LAT   Au 7938   6.732   7.140   4.488
 7399  LAT   Au 7939   6.528   7.140   4.692
 7400  LAT   Au 7940   6.732   6.936   4.692
 7401  LAT   Au 7941   6.936   6.936   4.488
 7402  LAT   Au 7942   7.140   7.140   4.488
 7403  LAT   Au 7943   6.936   7.140   4.692
 7404  LAT   Au 7944   7.140   6.936   4.692
 7405  LAT   Au 7945   0.000   0.000   4.896
 7406  LAT   Au 7946   0.204   0.204   4.896
 7407  LAT   Au 7947   0.000   0.204   5.100
 7408  LAT   Au 7948   0.204   0.000   5.100
 7409  LAT   Au 7949   0.408   0.000   4.896
 7410  LAT   Au 7950   0.612   0.204   4.896
 7411  LAT   Au 7951   0.408   0.204   5.100
 7412  LAT   Au 7952   0.612   0.000   5.100
 7413  LAT   Au 7953   0.816   0.000   4.896
 7414  LAT   Au 7954   1.020   0.204   4.896
 7415  LAT   Au 7955   0.816   0.204   5.100
 7416  LAT   Au 7956   1.020   0.000   5.100
 7417  LAT   Au 7957   1.224   0.000   4.896
 7418  LAT   Au 7958   1.428   0.204   4.896
 7419  LAT   Au 7959   1.224   0.204   5.100
 7420  LAT   Au 7960   1.428   0.000   5.100
 7421  LAT   Au 7961   1.632   0.000   4.896
 7422  LAT   Au 7962   1.836   0.204   4.896
 7423  LAT   Au 7963   1.632   0.204   5.100
 7424  LAT   Au 7964   1.836   0.000   5.100
 7425  LAT   Au 7965   2.040   0.000   4.896
 7426  LAT   Au 7966   2.244   0.204   4.896
 7427  LAT   Au 7967   2.040   0.204   5.100
 7428  LAT   Au 7968   2.244   0.000   5.100
 7429  LAT   Au 7969   2.448   0.000   4.896
 7430  LAT   Au 7970   2.652   0.204   4.896
 7431  LAT   Au 7971   2.448   0.204   5.100
 7432  LAT   Au 7972   2.652   0.000   5.100
 7433  LAT   Au 7973   2.856   0.000   4.896
 7434  LAT   Au 7974   3.060   0.204   4.896
 7435  LAT   Au 7975   2.856   0.204   5.100
 7436  LAT   Au 7976   3.060   0.000   5.100
 7437  LAT   Au 7977   3.264   0.000   4.896
 7438  LAT   Au 7978   3.468   0.204   4.896
 7439  LAT   Au 7979   3.264   0.204   5.100
 7440  LAT   Au 7980   3.468   0.000   5.100
 7441  LAT   Au 7981   3.672   0.000   4.896
 7442  LAT   Au 7982   3.876   0.204   4.896
 7443  LAT   Au 7983   3.672   0.204   5.100
 7444  LAT   Au 7984   3.876   0.000   5.100
 7445  LAT   Au 7985   4.080   0.000   4.896
 7446  LAT   Au 7986   4.284   0.204   4.896
 7447  LAT   Au 7987   4.080   0.204   5.100
 7448  LAT   Au 7988   4.284   0.000   5.100
 7449  LAT   Au 7989   4.488   0.000   4.896
 7450  LAT   Au 7990   4.692   0.204   4.896
 7451  LAT   Au 7991   4.488   0.204   5.100
 7452  LAT   Au 7992   4.692   0.000   5.100
 7453  LAT   Au 7993   4.896   0.000   4.896
 7454  LAT   Au 7994   5.100   0.204   4.896
 7455  LAT   Au 7995   4.896   0.204   5.100
 7456  LAT   Au 7996   5.100   0.000   5.100
 7457  LAT   Au 7997   5.304   0.000   4.896
 7458  LAT   Au 7998   5.508   0.204   4.896
 7459  LAT   Au 7999   5.304   0.204   5.100
 7460  LAT   Au 8000   5.508   0.000   5.100
 7461  LAT   Au 8001   5.712   0.000   4.896
 7462  LAT   Au 8002   5.916   0.204   4.896
 7463  LAT   Au 8003   5.712   0.204   5.100
 7464  LAT   Au 8004   5.916   0.000   5.100
 7465  LAT   Au 8005   6.120   0.000   4.896
 7466  LAT   Au 8006   6.324   0.204   4.896
 7467  LAT   Au 8007   6.120   0.204   5.100
 7468  LAT   Au 8008   6.324   0.000   5.100
 7469  LAT   Au 8009   6.528   0.000   4.896
 7470  LAT   Au 8010   6.732   0.204   4.896
 7471  LAT   Au 8011   6.528   0.204   5.100
 7472  LAT   Au 8012   6.732   0.000   5.100
 7473  LAT   Au 8013   6.936   0.000   4.896
 7474  LAT   Au 8014   7.140   0.204   4.896
 7475  LAT   Au 8015   6.936   0.204   5.100
 7476  LAT   Au 8016   7.140   0.000   5.100
 7477  LAT   Au 8017   0.000   0.408   4.896
 7478  LAT   Au 8018   0.204   0.612   4.896
 7479  LAT   Au 8019   0.000   0.612   5.100
 7480  LAT   Au 8020   0.204   0.408   5.100
 7481  LAT   Au 8021   0.408   0.408   4.896
 7482  LAT   Au 8022   0.612   0.612   4.896
 7483  LAT   Au 8023   0.408   0.612   5.100
 7484  LAT   Au 8024   0.612   0.408   5.100
 7485  LAT   Au 8025   0.816   0.408   4.896
 7486  LAT   Au 8026   1.020   0.612   4.896
 7487  LAT   Au 8027   0.816   0.612   5.100
 7488  LAT   Au 8028   1.020   0.408   5.100
 7489  LAT   Au 8029   1.224   0.408   4.896
 7490  LAT   Au 8030   1.428   0.612   4.896
 7491  LAT   Au 8031   1.224   0.612   5.100
 7492  LAT   Au 8032   1.428   0.408   5.100
 7493  LAT   Au 8033   1.632   0.408   4.896
 7494  LAT   Au 8034   1.836   0.612   4.896
 7495  LAT   Au 8035   1.632   0.612   5.100
 7496  LAT   Au 8036   1.836   0.408   5.100
 7497  LAT   Au 8037   2.040   0.408   4.896
 7498  LAT   Au 8038   2.244   0.612   4.896
 7499  LAT   Au 8039   2.040   0.612   5.100
 7500  LAT   Au 8040   2.244   0.408   5.100
 7501  LAT   Au 8041   2.448   0.408   4.896
 7502  LAT   Au 8042   2.652   0.612   4.896
 7503  LAT   Au 8043   2.448   0.612   5.100
 7504  LAT   Au 8044   2.652   0.408   5.100
 7505  LAT   Au 8045   2.856   0.408   4.896
 7506  LAT   Au 8046   3.060   0.612   4.896
 7507  LAT   Au 8047   2.856   0.612   5.100
 7508  LAT   Au 8048   3.060   0.408   5.100
 7509  LAT   Au 8049   3.264   0.408   4.896
 7510  LAT   Au 8050   3.264   0.612   5.100
 7511  LAT   Au 8051   3.468   0.408   5.100
 7512  LAT   Au 8052   3.672   0.408   4.896
 7513  LAT   Au 8053   3.876   0.408   5.100
 7514  LAT   Au 8054   4.080   0.408   4.896
 7515  LAT   Au 8055   4.284   0.612   4.896
 7516  LAT   Au 8056   4.080   0.612   5.100
 7517  LAT   Au 8057   4.284   0.408   5.100
 7518  LAT   Au 8058   4.488   0.408   4.896
 7519  LAT   Au 8059   4.692   0.612   4.896
 7520  LAT   Au 8060   4.488   0.612   5.100
 7521  LAT   Au 8061   4.692   0.408   5.100
 7522  LAT   Au 8062   4.896   0.408   4.896
 7523  LAT   Au 8063   5.100   0.612   4.896
 7524  LAT   Au 8064   4.896   0.612   5.100
 7525  LAT   Au 8065   5.100   0.408   5.100
 7526  LAT   Au 8066   5.304   0.408   4.896
 7527  LAT   Au 8067   5.508   0.612   4.896
 7528  LAT   Au 8068   5.304   0.612   5.100
 7529  LAT   Au 8069   5.508   0.408   5.100
 7530  LAT   Au 8070   5.712   0.408   4.896
 7531  LAT   Au 8071   5.916   0.612   4.896
 7532  LAT   Au 8072   5.712   0.612   5.100
 7533  LAT   Au 8073   5.916   0.408   5.100
 7534  LAT   Au 8074   6.120   0.408   4.896
 7535  LAT   Au 8075   6.324   0.612   4.896
 7536  LAT   Au 8076   6.120   0.612   5.100
 7537  LAT   Au 8077   6.324   0.408   5.100
 7538  LAT   Au 8078   6.528   0.408   4.896
 7539  LAT   Au 8079   6.732   0.612   4.896
 7540  LAT   Au 8080   6.528   0.612   5.100
 7541  LAT   Au 8081   6.732   0.408   5.100
 7542  LAT   Au 8082   6.936   0.408   4.896
 7543  LAT   Au 8083   7.140   0.612   4.896
 7544  LAT   Au 8084   6.936   0.612   5.100
 7545  LAT   Au 8085   7.140   0.408   5.100
 7546  LAT   Au 8086   0.000   0.816   4.896
 7547  LAT   Au 8087   0.204   1.020   4.896
 7548  LAT   Au 8088   0.000   1.020   5.100
 7549  LAT   Au 8089   0.204   0.816   5.100
 7550  LAT   Au 8090   0.408   0.816   4.896
 7551  LAT   Au 8091   0.612   1.020   4.896
 7552  LAT   Au 8092   0.408   1.020   5.100
 7553  LAT   Au 8093   0.612   0.816   5.100
 7554  LAT   Au 8094   0.816   0.816   4.896
 7555  LAT   Au 8095   1.020   1.020   4.896
 7556  LAT   Au 8096   0.816   1.020   5.100
 7557  LAT   Au 8097   1.020   0.816   5.100
 7558  LAT   Au 8098   1.224   0.816   4.896
 7559  LAT   Au 8099   1.428   1.020   4.896
 7560  LAT   Au 8100   1.224   1.020   5.100
 7561  LAT   Au 8101   1.428   0.816   5.100
 7562  LAT   Au 8102   1.632   0.816   4.896
 7563  LAT   Au 8103   1.836   1.020   4.896
 7564  LAT   Au 8104   1.632   1.020   5.100
 7565  LAT   Au 8105   1.836   0.816   5.100
 7566  LAT   Au 8106   2.040   0.816   4.896
 7567  LAT   Au 8107   2.040   1.020   5.100
 7568  LAT   Au 8108   2.244   0.816   5.100
 7569  LAT   Au 8109   2.448   0.816   4.896
 7570  LAT   Au 8110   4.896   0.816   4.896
 7571  LAT   Au 8111   5.100   0.816   5.100
 7572  LAT   Au 8112   5.304   0.816   4.896
 7573  LAT   Au 8113   5.508   1.020   4.896
 7574  LAT   Au 8114   5.304   1.020   5.100
 7575  LAT   Au 8115   5.508   0.816   5.100
 7576  LAT   Au 8116   5.712   0.816   4.896
 7577  LAT   Au 8117   5.916   1.020   4.896
 7578  LAT   Au 8118   5.712   1.020   5.100
 7579  LAT   Au 8119   5.916   0.816   5.100
 7580  LAT   Au 8120   6.120   0.816   4.896
 7581  LAT   Au 8121   6.324   1.020   4.896
 7582  LAT   Au 8122   6.120   1.020   5.100
 7583  LAT   Au 8123   6.324   0.816   5.100
 7584  LAT   Au 8124   6.528   0.816   4.896
 7585  LAT   Au 8125   6.732   1.020   4.896
 7586  LAT   Au 8126   6.528   1.020   5.100
 7587  LAT   Au 8127   6.732   0.816   5.100
 7588  LAT   Au 8128   6.936   0.816   4.896
 7589  LAT   Au 8129   7.140   1.020   4.896
 7590  LAT   Au 8130   6.936   1.020   5.100
 7591  LAT   Au 8131   7.140   0.816   5.100
 7592  LAT   Au 8132   0.000   1.224   4.896
 7593  LAT   Au 8133   0.204   1.428   4.896
 7594  LAT   Au 8134   0.000   1.428   5.100
 7595  LAT   Au 8135   0.204   1.224   5.100
 7596  LAT   Au 8136   0.408   1.224   4.896
 7597  LAT   Au 8137   0.612   1.428   4.896
 7598  LAT   Au 8138   0.408   1.428   5.100
 7599  LAT   Au 8139   0.612   1.224   5.100
 7600  LAT   Au 8140   0.816   1.224   4.896
 7601  LAT   Au 8141   1.020   1.428   4.896
 7602  LAT   Au 8142   0.816   1.428   5.100
 7603  LAT   Au 8143   1.020   1.224   5.100
 7604  LAT   Au 8144   1.224   1.224   4.896
 7605  LAT   Au 8145   1.428   1.428   4.896
 7606  LAT   Au 8146   1.224   1.428   5.100
 7607  LAT   Au 8147   1.428   1.224   5.100
 7608  LAT   Au 8148   1.632   1.224   4.896
 7609  LAT   Au 8149   5.508   1.224   5.100
 7610  LAT   Au 8150   5.712   1.224   4.896
 7611  LAT   Au 8151   5.916   1.428   4.896
 7612  LAT   Au 8152   5.712   1.428   5.100
 7613  LAT   Au 8153   5.916   1.224   5.100
 7614  LAT   Au 8154   6.120   1.224   4.896
 7615  LAT   Au 8155   6.324   1.428   4.896
 7616  LAT   Au 8156   6.120   1.428   5.100
 7617  LAT   Au 8157   6.324   1.224   5.100
 7618  LAT   Au 8158   6.528   1.224   4.896
 7619  LAT   Au 8159   6.732   1.428   4.896
 7620  LAT   Au 8160   6.528   1.428   5.100
 7621  LAT   Au 8161   6.732   1.224   5.100
 7622  LAT   Au 8162   6.936   1.224   4.896
 7623  LAT   Au 8163   7.140   1.428   4.896
 7624  LAT   Au 8164   6.936   1.428   5.100
 7625  LAT   Au 8165   7.140   1.224   5.100
 7626  LAT   Au 8166   0.000   1.632   4.896
 7627  LAT   Au 8167   0.204   1.836   4.896
 7628  LAT   Au 8168   0.000   1.836   5.100
 7629  LAT   Au 8169   0.204   1.632   5.100
 7630  LAT   Au 8170   0.408   1.632   4.896
 7631  LAT   Au 8171   0.612   1.836   4.896
 7632  LAT   Au 8172   0.408   1.836   5.100
 7633  LAT   Au 8173   0.612   1.632   5.100
 7634  LAT   Au 8174   0.816   1.632   4.896
 7635  LAT   Au 8175   1.020   1.836   4.896
 7636  LAT   Au 8176   0.816   1.836   5.100
 7637  LAT   Au 8177   1.020   1.632   5.100
 7638  LAT   Au 8178   1.224   1.632   4.896
 7639  LAT   Au 8179   5.916   1.632   5.100
 7640  LAT   Au 8180   6.120   1.632   4.896
 7641  LAT   Au 8181   6.324   1.836   4.896
 7642  LAT   Au 8182   6.120   1.836   5.100
 7643  LAT   Au 8183   6.324   1.632   5.100
 7644  LAT   Au 8184   6.528   1.632   4.896
 7645  LAT   Au 8185   6.732   1.836   4.896
 7646  LAT   Au 8186   6.528   1.836   5.100
 7647  LAT   Au 8187   6.732   1.632   5.100
 7648  LAT   Au 8188   6.936   1.632   4.896
 7649  LAT   Au 8189   7.140   1.836   4.896
 7650  LAT   Au 8190   6.936   1.836   5.100
 7651  LAT   Au 8191   7.140   1.632   5.100
 7652  LAT   Au 8192   0.000   2.040   4.896
 7653  LAT   Au 8193   0.204   2.244   4.896
 7654  LAT   Au 8194   0.000   2.244   5.100
 7655  LAT   Au 8195   0.204   2.040   5.100
 7656  LAT   Au 8196   0.408   2.040   4.896
 7657  LAT   Au 8197   0.612   2.244   4.896
 7658  LAT   Au 8198   0.408   2.244   5.100
 7659  LAT   Au 8199   0.612   2.040   5.100
 7660  LAT   Au 8200   0.816   2.040   4.896
 7661  LAT   Au 8201   0.816   2.244   5.100
 7662  LAT   Au 8202   1.020   2.040   5.100
 7663  LAT   Au 8203   6.324   2.244   4.896
 7664  LAT   Au 8204   6.324   2.040   5.100
 7665  LAT   Au 8205   6.528   2.040   4.896
 7666  LAT   Au 8206   6.732   2.244   4.896
 7667  LAT   Au 8207   6.528   2.244   5.100
 7668  LAT   Au 8208   6.732   2.040   5.100
 7669  LAT   Au 8209   6.936   2.040   4.896
 7670  LAT   Au 8210   7.140   2.244   4.896
 7671  LAT   Au 8211   6.936   2.244   5.100
 7672  LAT   Au 8212   7.140   2.040   5.100
 7673  LAT   Au 8213   0.000   2.448   4.896
 7674  LAT   Au 8214   0.204   2.652   4.896
 7675  LAT   Au 8215   0.000   2.652   5.100
 7676  LAT   Au 8216   0.204   2.448   5.100
 7677  LAT   Au 8217   0.408   2.448   4.896
 7678  LAT   Au 8218   0.612   2.652   4.896
 7679  LAT   Au 8219   0.408   2.652   5.100
 7680  LAT   Au 8220   0.612   2.448   5.100
 7681  LAT   Au 8221   0.816   2.448   4.896
 7682  LAT   Au 8222   6.528   2.448   4.896
 7683  LAT   Au 8223   6.732   2.652   4.896
 7684  LAT   Au 8224   6.528   2.652   5.100
 7685  LAT   Au 8225   6.732   2.448   5.100
 7686  LAT   Au 8226   6.936   2.448   4.896
 7687  LAT   Au 8227   7.140   2.652   4.896
 7688  LAT   Au 8228   6.936   2.652   5.100
 7689  LAT   Au 8229   7.140   2.448   5.100
 7690  LAT   Au 8230   0.000   2.856   4.896
 7691  LAT   Au 8231   0.204   3.060   4.896
 7692  LAT   Au 8232   0.000   3.060   5.100
 7693  LAT   Au 8233   0.204   2.856   5.100
 7694  LAT   Au 8234   0.408   2.856   4.896
 7695  LAT   Au 8235   0.612   3.060   4.896
 7696  LAT   Au 8236   0.408   3.060   5.100
 7697  LAT   Au 8237   0.612   2.856   5.100
 7698  LAT   Au 8238   6.528   2.856   4.896
 7699  LAT   Au 8239   6.732   3.060   4.896
 7700  LAT   Au 8240   6.732   2.856   5.100
 7701  LAT   Au 8241   6.936   2.856   4.896
 7702  LAT   Au 8242   7.140   3.060   4.896
 7703  LAT   Au 8243   6.936   3.060   5.100
 7704  LAT   Au 8244   7.140   2.856   5.100
 7705  LAT   Au 8245   0.000   3.264   4.896
 7706  LAT   Au 8246   0.204   3.468   4.896
 7707  LAT   Au 8247   0.000   3.468   5.100
 7708  LAT   Au 8248   0.204   3.264   5.100
 7709  LAT   Au 8249   0.408   3.264   4.896
 7710  LAT   Au 8250   0.408   3.468   5.100
 7711  LAT   Au 8251   0.612   3.264   5.100
 7712  LAT   Au 8252   6.732   3.468   4.896
 7713  LAT   Au 8253   6.732   3.264   5.100
 7714  LAT   Au 8254   6.936   3.264   4.896
 7715  LAT   Au 8255   7.140   3.468   4.896
 7716  LAT   Au 8256   6.936   3.468   5.100
 7717  LAT   Au 8257   7.140   3.264   5.100
 7718  LAT   Au 8258   0.000   3.672   4.896
 7719  LAT   Au 8259   0.204   3.876   4.896
 7720  LAT   Au 8260   0.000   3.876   5.100
 7721  LAT   Au 8261   0.204   3.672   5.100
 7722  LAT   Au 8262   0.408   3.672   4.896
 7723  LAT   Au 8263   0.408   3.876   5.100
 7724  LAT   Au 8264   6.732   3.876   4.896
 7725  LAT   Au 8265   6.732   3.672   5.100
 7726  LAT   Au 8266   6.936   3.672   4.896
 7727  LAT   Au 8267   7.140   3.876   4.896
 7728  LAT   Au 8268   6.936   3.876   5.100
 7729  LAT   Au 8269   7.140   3.672   5.100
 7730  LAT   Au 8270   0.000   4.080   4.896
 7731  LAT   Au 8271   0.204   4.284   4.896
 7732  LAT   Au 8272   0.000   4.284   5.100
 7733  LAT   Au 8273   0.204   4.080   5.100
 7734  LAT   Au 8274   0.408   4.080   4.896
 7735  LAT   Au 8275   0.612   4.284   4.896
 7736  LAT   Au 8276   0.408   4.284   5.100
 7737  LAT   Au 8277   0.612   4.080   5.100
 7738  LAT   Au 8278   6.732   4.284   4.896
 7739  LAT   Au 8279   6.528   4.284   5.100
 7740  LAT   Au 8280   6.732   4.080   5.100
 7741  LAT   Au 8281   6.936   4.080   4.896
 7742  LAT   Au 8282   7.140   4.284   4.896
 7743  LAT   Au 8283   6.936   4.284   5.100
 7744  LAT   Au 8284   7.140   4.080   5.100
 7745  LAT   Au 8285   0.000   4.488   4.896
 7746  LAT   Au 8286   0.204   4.692   4.896
 7747  LAT   Au 8287   0.000   4.692   5.100
 7748  LAT   Au 8288   0.204   4.488   5.100
 7749  LAT   Au 8289   0.408   4.488   4.896
 7750  LAT   Au 8290   0.612   4.692   4.896
 7751  LAT   Au 8291   0.408   4.692   5.100
 7752  LAT   Au 8292   0.612   4.488   5.100
 7753  LAT   Au 8293   6.528   4.488   4.896
 7754  LAT   Au 8294   6.732   4.692   4.896
 7755  LAT   Au 8295   6.528   4.692   5.100
 7756  LAT   Au 8296   6.732   4.488   5.100
 7757  LAT   Au 8297   6.936   4.488   4.896
 7758  LAT   Au 8298   7.140   4.692   4.896
 7759  LAT   Au 8299   6.936   4.692   5.100
 7760  LAT   Au 8300   7.140   4.488   5.100
 7761  LAT   Au 8301   0.000   4.896   4.896
 7762  LAT   Au 8302   0.204   5.100   4.896
 7763  LAT   Au 8303   0.000   5.100   5.100
 7764  LAT   Au 8304   0.204   4.896   5.100
 7765  LAT   Au 8305   0.408   4.896   4.896
 7766  LAT   Au 8306   0.612   5.100   4.896
 7767  LAT   Au 8307   0.408   5.100   5.100
 7768  LAT   Au 8308   0.612   4.896   5.100
 7769  LAT   Au 8309   0.816   4.896   4.896
 7770  LAT   Au 8310   0.816   5.100   5.100
 7771  LAT   Au 8311   6.324   5.100   4.896
 7772  LAT   Au 8312   6.324   4.896   5.100
 7773  LAT   Au 8313   6.528   4.896   4.896
 7774  LAT   Au 8314   6.732   5.100   4.896
 7775  LAT   Au 8315   6.528   5.100   5.100
 7776  LAT   Au 8316   6.732   4.896   5.100
 7777  LAT   Au 8317   6.936   4.896   4.896
 7778  LAT   Au 8318   7.140   5.100   4.896
 7779  LAT   Au 8319   6.936   5.100   5.100
 7780  LAT   Au 8320   7.140   4.896   5.100
 7781  LAT   Au 8321   0.000   5.304   4.896
 7782  LAT   Au 8322   0.204   5.508   4.896
 7783  LAT   Au 8323   0.000   5.508   5.100
 7784  LAT   Au 8324   0.204   5.304   5.100
 7785  LAT   Au 8325   0.408   5.304   4.896
 7786  LAT   Au 8326   0.612   5.508   4.896
 7787  LAT   Au 8327   0.408   5.508   5.100
 7788  LAT   Au 8328   0.612   5.304   5.100
 7789  LAT   Au 8329   0.816   5.304   4.896
 7790  LAT   Au 8330   1.020   5.508   4.896
 7791  LAT   Au 8331   0.816   5.508   5.100
 7792  LAT   Au 8332   1.020   5.304   5.100
 7793  LAT   Au 8333   1.224   5.508   5.100
 7794  LAT   Au 8334   5.916   5.508   4.896
 7795  LAT   Au 8335   6.120   5.304   4.896
 7796  LAT   Au 8336   6.324   5.508   4.896
 7797  LAT   Au 8337   6.120   5.508   5.100
 7798  LAT   Au 8338   6.324   5.304   5.100
 7799  LAT   Au 8339   6.528   5.304   4.896
 7800  LAT   Au 8340   6.732   5.508   4.896
 7801  LAT   Au 8341   6.528   5.508   5.100
 7802  LAT   Au 8342   6.732   5.304   5.100
 7803  LAT   Au 8343   6.936   5.304   4.896
 7804  LAT   Au 8344   7.140   5.508   4.896
 7805  LAT   Au 8345   6.936   5.508   5.100
 7806  LAT   Au 8346   7.140   5.304   5.100
 7807  LAT   Au 8347   0.000   5.712   4.896
 7808  LAT   Au 8348   0.204   5.916   4.896
 7809  LAT   Au 8349   0.000   5.916   5.100
 7810  LAT   Au 8350   0.204   5.712   5.100
 7811  LAT   Au 8351   0.408   5.712   4.896
 7812  LAT   Au 8352   0.612   5.916   4.896
 7813  LAT   Au 8353   0.408   5.916   5.100
 7814  LAT   Au 8354   0.612   5.712   5.100
 7815  LAT   Au 8355   0.816   5.712   4.896
 7816  LAT   Au 8356   1.020   5.916   4.896
 7817  LAT   Au 8357   0.816   5.916   5.100
 7818  LAT   Au 8358   1.020   5.712   5.100
 7819  LAT   Au 8359   1.224   5.712   4.896
 7820  LAT   Au 8360   1.428   5.916   4.896
 7821  LAT   Au 8361   1.224   5.916   5.100
 7822  LAT   Au 8362   1.428   5.712   5.100
 7823  LAT   Au 8363   1.632   5.916   5.100
 7824  LAT   Au 8364   5.508   5.916   4.896
 7825  LAT   Au 8365   5.916   5.916   4.896
 7826  LAT   Au 8366   5.712   5.916   5.100
 7827  LAT   Au 8367   5.916   5.712   5.100
 7828  LAT   Au 8368   6.120   5.712   4.896
 7829  LAT   Au 8369   6.324   5.916   4.896
 7830  LAT   Au 8370   6.120   5.916   5.100
 7831  LAT   Au 8371   6.324   5.712   5.100
 7832  LAT   Au 8372   6.528   5.712   4.896
 7833  LAT   Au 8373   6.732   5.916   4.896
 7834  LAT   Au 8374   6.528   5.916   5.100
 7835  LAT   Au 8375   6.732   5.712   5.100
 7836  LAT   Au 8376   6.936   5.712   4.896
 7837  LAT   Au 8377   7.140   5.916   4.896
 7838  LAT   Au 8378   6.936   5.916   5.100
 7839  LAT   Au 8379   7.140   5.712   5.100
 7840  LAT   Au 8380   0.000   6.120   4.896
 7841  LAT   Au 8381   0.204   6.324   4.896
 7842  LAT   Au 8382   0.000   6.324   5.100
 7843  LAT   Au 8383   0.204   6.120   5.100
 7844  LAT   Au 8384   0.408   6.120   4.896
 7845  LAT   Au 8385   0.612   6.324   4.896
 7846  LAT   Au 8386   0.408   6.324   5.100
 7847  LAT   Au 8387   0.612   6.120   5.100
 7848  LAT   Au 8388   0.816   6.120   4.896
 7849  LAT   Au 8389   1.020   6.324   4.896
 7850  LAT   Au 8390   0.816   6.324   5.100
 7851  LAT   Au 8391   1.020   6.120   5.100
 7852  LAT   Au 8392   1.224   6.120   4.896
 7853  LAT   Au 8393   1.428   6.324   4.896
 7854  LAT   Au 8394   1.224   6.324   5.100
 7855  LAT   Au 8395   1.428   6.120   5.100
 7856  LAT   Au 8396   1.632   6.120   4.896
 7857  LAT   Au 8397   1.836   6.324   4.896
 7858  LAT   Au 8398   1.632   6.324   5.100
 7859  LAT   Au 8399   1.836   6.120   5.100
 7860  LAT   Au 8400   2.244   6.324   4.896
 7861  LAT   Au 8401   2.040   6.324   5.100
 7862  LAT   Au 8402   5.100   6.324   4.896
 7863  LAT   Au 8403   4.896   6.324   5.100
 7864  LAT   Au 8404   5.304   6.120   4.896
 7865  LAT   Au 8405   5.508   6.324   4.896
 7866  LAT   Au 8406   5.304   6.324   5.100
 7867  LAT   Au 8407   5.508   6.120   5.100
 7868  LAT   Au 8408   5.712   6.120   4.896
 7869  LAT   Au 8409   5.916   6.324   4.896
 7870  LAT   Au 8410   5.712   6.324   5.100
 7871  LAT   Au 8411   5.916   6.120   5.100
 7872  LAT   Au 8412   6.120   6.120   4.896
 7873  LAT   Au 8413   6.324   6.324   4.896
 7874  LAT   Au 8414   6.120   6.324   5.100
 7875  LAT   Au 8415   6.324   6.120   5.100
 7876  LAT   Au 8416   6.528   6.120   4.896
 7877  LAT   Au 8417   6.732   6.324   4.896
 7878  LAT   Au 8418   6.528   6.324   5.100
 7879  LAT   Au 8419   6.732   6.120   5.100
 7880  LAT   Au 8420   6.936   6.120   4.896
 7881  LAT   Au 8421   7.140   6.324   4.896
 7882  LAT   Au 8422   6.936   6.324   5.100
 7883  LAT   Au 8423   7.140   6.120   5.100
 7884  LAT   Au 8424   0.000   6.528   4.896
 7885  LAT   Au 8425   0.204   6.732   4.896
 7886  LAT   Au 8426   0.000   6.732   5.100
 7887  LAT   Au 8427   0.204   6.528   5.100
 7888  LAT   Au 8428   0.408   6.528   4.896
 7889  LAT   Au 8429   0.612   6.732   4.896
 7890  LAT   Au 8430   0.408   6.732   5.100
 7891  LAT   Au 8431   0.612   6.528   5.100
 7892  LAT   Au 8432   0.816   6.528   4.896
 7893  LAT   Au 8433   1.020   6.732   4.896
 7894  LAT   Au 8434   0.816   6.732   5.100
 7895  LAT   Au 8435   1.020   6.528   5.100
 7896  LAT   Au 8436   1.224   6.528   4.896
 7897  LAT   Au 8437   1.428   6.732   4.896
 7898  LAT   Au 8438   1.224   6.732   5.100
 7899  LAT   Au 8439   1.428   6.528   5.100
 7900  LAT   Au 8440   1.632   6.528   4.896
 7901  LAT   Au 8441   1.836   6.732   4.896
 7902  LAT   Au 8442   1.632   6.732   5.100
 7903  LAT   Au 8443   1.836   6.528   5.100
 7904  LAT   Au 8444   2.040   6.528   4.896
 7905  LAT   Au 8445   2.244   6.732   4.896
 7906  LAT   Au 8446   2.040   6.732   5.100
 7907  LAT   Au 8447   2.244   6.528   5.100
 7908  LAT   Au 8448   2.448   6.528   4.896
 7909  LAT   Au 8449   2.652   6.732   4.896
 7910  LAT   Au 8450   2.448   6.732   5.100
 7911  LAT   Au 8451   2.652   6.528   5.100
 7912  LAT   Au 8452   2.856   6.528   4.896
 7913  LAT   Au 8453   3.060   6.732   4.896
 7914  LAT   Au 8454   2.856   6.732   5.100
 7915  LAT   Au 8455   3.468   6.732   4.896
 7916  LAT   Au 8456   3.264   6.732   5.100
 7917  LAT   Au 8457   3.876   6.732   4.896
 7918  LAT   Au 8458   3.672   6.732   5.100
 7919  LAT   Au 8459   4.284   6.732   4.896
 7920  LAT   Au 8460   4.080   6.732   5.100
 7921  LAT   Au 8461   4.284   6.528   5.100
 7922  LAT   Au 8462   4.488   6.528   4.896
 7923  LAT   Au 8463   4.692   6.732   4.896
 7924  LAT   Au 8464   4.488   6.732   5.100
 7925  LAT   Au 8465   4.692   6.528   5.100
 7926  LAT   Au 8466   4.896   6.528   4.896
 7927  LAT   Au 8467   5.100   6.732   4.896
 7928  LAT   Au 8468   4.896   6.732   5.100
 7929  LAT   Au 8469   5.100   6.528   5.100
 7930  LAT   Au 8470   5.304   6.528   4.896
 7931  LAT   Au 8471   5.508   6.732   4.896
 7932  LAT   Au 8472   5.304   6.732   5.100
 7933  LAT   Au 8473   5.508   6.528   5.100
 7934  LAT   Au 8474   5.712   6.528   4.896
 7935  LAT   Au 8475   5.916   6.732   4.896
 7936  LAT   Au 8476   5.712   6.732   5.100
 7937  LAT   Au 8477   5.916   6.528   5.100
 7938  LAT   Au 8478   6.120   6.528   4.896
 7939  LAT   Au 8479   6.324   6.732   4.896
 7940  LAT   Au 8480   6.120   6.732   5.100
 7941  LAT   Au 8481   6.324   6.528   5.100
 7942  LAT   Au 8482   6.528   6.528   4.896
 7943  LAT   Au 8483   6.732   6.732   4.896
 7944  LAT   Au 8484   6.528   6.732   5.100
 7945  LAT   Au 8485   6.732   6.528   5.100
 7946  LAT   Au 8486   6.936   6.528   4.896
 7947  LAT   Au 8487   7.140   6.732   4.896
 7948  LAT   Au 8488   6.936   6.732   5.100
 7949  LAT   Au 8489   7.140   6.528   5.100
 7950  LAT   Au 8490   0.000   6.936   4.896
 7951  LAT   Au 8491   0.204   7.140   4.896
 7952  LAT   Au 8492   0.000   7.140   5.100
 7953  LAT   Au 8493   0.204   6.936   5.100
 7954  LAT   Au 8494   0.408   6.936   4.896
 7955  LAT   Au 8495   0.612   7.140   4.896
 7956  LAT   Au 8496   0.408   7.140   5.100
 7957  LAT   Au 8497   0.612   6.936   5.100
 7958  LAT   Au 8498   0.816   6.936   4.896
 7959  LAT   Au 8499   1.020   7.140   4.896
 7960  LAT   Au 8500   0.816   7.140   5.100
 7961  LAT   Au 8501   1.020   6.936   5.100
 7962  LAT   Au 8502   1.224   6.936   4.896
 7963  LAT   Au 8503   1.428   7.140   4.896
 7964  LAT   Au 8504   1.224   7.140   5.100
 7965  LAT   Au 8505   1.428   6.936   5.100
 7966  LAT   Au 8506   1.632   6.936   4.896
 7967  LAT   Au 8507   1.836   7.140   4.896
 7968  LAT   Au 8508   1.632   7.140   5.100
 7969  LAT   Au 8509   1.836   6.936   5.100
 7970  LAT   Au 8510   2.040   6.936   4.896
 7971  LAT   Au 8511   2.244   7.140   4.896
 7972  LAT   Au 8512   2.040   7.140   5.100
 7973  LAT   Au 8513   2.244   6.936   5.100
 7974  LAT   Au 8514   2.448   6.936   4.896
 7975  LAT   Au 8515   2.652   7.140   4.896
 7976  LAT   Au 8516   2.448   7.140   5.100
 7977  LAT   Au 8517   2.652   6.936   5.100
 7978  LAT   Au 8518   2.856   6.936   4.896
 7979  LAT   Au 8519   3.060   7.140   4.896
 7980  LAT   Au 8520   2.856   7.140   5.100
 7981  LAT   Au 8521   3.060   6.936   5.100
 7982  LAT   Au 8522   3.264   6.936   4.896
 7983  LAT   Au 8523   3.468   7.140   4.896
 7984  LAT   Au 8524   3.264   7.140   5.100
 7985  LAT   Au 8525   3.468   6.936   5.100
 7986  LAT   Au 8526   3.672   6.936   4.896
 7987  LAT   Au 8527   3.876   7.140   4.896
 7988  LAT   Au 8528   3.672   7.140   5.100
 7989  LAT   Au 8529   3.876   6.936   5.100
 7990  LAT   Au 8530   4.080   6.936   4.896
 7991  LAT   Au 8531   4.284   7.140   4.896
 7992  LAT   Au 8532   4.080   7.140   5.100
 7993  LAT   Au 8533   4.284   6.936   5.100
 7994  LAT   Au 8534   4.488   6.936   4.896
 7995  LAT   Au 8535   4.692   7.140   4.896
 7996  LAT   Au 8536   4.488   7.140   5.100
 7997  LAT   Au 8537   4.692   6.936   5.100
 7998  LAT   Au 8538   4.896   6.936   4.896
 7999  LAT   Au 8539   5.100   7.140   4.896
 8000  LAT   Au 8540   4.896   7.140   5.100
 8001  LAT   Au 8541   5.100   6.936   5.100
 8002  LAT   Au 8542   5.304   6.936   4.896
 8003  LAT   Au 8543   5.508   7.140   4.896
 8004  LAT   Au 8544   5.304   7.140   5.100
 8005  LAT   Au 8545   5.508   6.936   5.100
 8006  LAT   Au 8546   5.712   6.936   4.896
 8007  LAT   Au 8547   5.916   7.140   4.896
 8008  LAT   Au 8548   5.712   7.140   5.100
 8009  LAT   Au 8549   5.916   6.936   5.100
 8010  LAT   Au 8550   6.120   6.936   4.896
 8011  LAT   Au 8551   6.324   7.140   4.896
 8012  LAT   Au 8552   6.120   7.140   5.100
 8013  LAT   Au 8553   6.324   6.936   5.100
 8014  LAT   Au 8554   6.528   6.936   4.896
 8015  LAT   Au 8555   6.732   7.140   4.896
 8016  LAT   Au 8556   6.528   7.140   5.100
 8017  LAT   Au 8557   6.732   6.936   5.100
 8018  LAT   Au 8558   6.936   6.936   4.896
 8019  LAT   Au 8559   7.140   7.140   4.896
 8020  LAT   Au 8560   6.936   7.140   5.100
 8021  LAT   Au 8561   7.140   6.936   5.100
 8022  LAT   Au 8562   0.000   0.000   5.304
 8023  LAT   Au 8563   0.204   0.204   5.304
 8024  LAT   Au 8564   0.000   0.204   5.508
 8025  LAT   Au 8565   0.204   0.000   5.508
 8026  LAT   Au 8566   0.408   0.000   5.304
 8027  LAT   Au 8567   0.612   0.204   5.304
 8028  LAT   Au 8568   0.408   0.204   5.508
 8029  LAT   Au 8569   0.612   0.000   5.508
 8030  LAT   Au 8570   0.816   0.000   5.304
 8031  LAT   Au 8571   1.020   0.204   5.304
 8032  LAT   Au 8572   0.816   0.204   5.508
 8033  LAT   Au 8573   1.020   0.000   5.508
 8034  LAT   Au 8574   1.224   0.000   5.304
 8035  LAT   Au 8575   1.428   0.204   5.304
 8036  LAT   Au 8576   1.224   0.204   5.508
 8037  LAT   Au 8577   1.428   0.000   5.508
 8038  LAT   Au 8578   1.632   0.000   5.304
 8039  LAT   Au 8579   1.836   0.204   5.304
 8040  LAT   Au 8580   1.632   0.204   5.508
 8041  LAT   Au 8581   1.836   0.000   5.508
 8042  LAT   Au 8582   2.040   0.000   5.304
 8043  LAT   Au 8583   2.244   0.204   5.304
 8044  LAT   Au 8584   2.040   0.204   5.508
 8045  LAT   Au 8585   2.244   0.000   5.508
 8046  LAT   Au 8586   2.448   0.000   5.304
 8047  LAT   Au 8587   2.652   0.204   5.304
 8048  LAT   Au 8588   2.448   0.204   5.508
 8049  LAT   Au 8589   2.652   0.000   5.508
 8050  LAT   Au 8590   2.856   0.000   5.304
 8051  LAT   Au 8591   3.060   0.204   5.304
 8052  LAT   Au 8592   2.856   0.204   5.508
 8053  LAT   Au 8593   3.060   0.000   5.508
 8054  LAT   Au 8594   3.264   0.000   5.304
 8055  LAT   Au 8595   3.468   0.204   5.304
 8056  LAT   Au 8596   3.264   0.204   5.508
 8057  LAT   Au 8597   3.468   0.000   5.508
 8058  LAT   Au 8598   3.672   0.000   5.304
 8059  LAT   Au 8599   3.876   0.204   5.304
 8060  LAT   Au 8600   3.672   0.204   5.508
 8061  LAT   Au 8601   3.876   0.000   5.508
 8062  LAT   Au 8602   4.080   0.000   5.304
 8063  LAT   Au 8603   4.284   0.204   5.304
 8064  LAT   Au 8604   4.080   0.204   5.508
 8065  LAT   Au 8605   4.284   0.000   5.508
 8066  LAT   Au 8606   4.488   0.000   5.304
 8067  LAT   Au 8607   4.692   0.204   5.304
 8068  LAT   Au 8608   4.488   0.204   5.508
 8069  LAT   Au 8609   4.692   0.000   5.508
 8070  LAT   Au 8610   4.896   0.000   5.304
 8071  LAT   Au 8611   5.100   0.204   5.304
 8072  LAT   Au 8612   4.896   0.204   5.508
 8073  LAT   Au 8613   5.100   0.000   5.508
 8074  LAT   Au 8614   5.304   0.000   5.304
 8075  LAT   Au 8615   5.508   0.204   5.304
 8076  LAT   Au 8616   5.304   0.204   5.508
 8077  LAT   Au 8617   5.508   0.000   5.508
 8078  LAT   Au 8618   5.712   0.000   5.304
 8079  LAT   Au 8619   5.916   0.204   5.304
 8080  LAT   Au 8620   5.712   0.204   5.508
 8081  LAT   Au 8621   5.916   0.000   5.508
 8082  LAT   Au 8622   6.120   0.000   5.304
 8083  LAT   Au 8623   6.324   0.204   5.304
 8084  LAT   Au 8624   6.120   0.204   5.508
 8085  LAT   Au 8625   6.324   0.000   5.508
 8086  LAT   Au 8626   6.528   0.000   5.304
 8087  LAT   Au 8627   6.732   0.204   5.304
 8088  LAT   Au 8628   6.528   0.204   5.508
 8089  LAT   Au 8629   6.732   0.000   5.508
 8090  LAT   Au 8630   6.936   0.000   5.304
 8091  LAT   Au 8631   7.140   0.204   5.304
 8092  LAT   Au 8632   6.936   0.204   5.508
 8093  LAT   Au 8633   7.140   0.000   5.508
 8094  LAT   Au 8634   0.000   0.408   5.304
 8095  LAT   Au 8635   0.204   0.612   5.304
 8096  LAT   Au 8636   0.000   0.612   5.508
 8097  LAT   Au 8637   0.204   0.408   5.508
 8098  LAT   Au 8638   0.408   0.408   5.304
 8099  LAT   Au 8639   0.612   0.612   5.304
 8100  LAT   Au 8640   0.408   0.612   5.508
 8101  LAT   Au 8641   0.612   0.408   5.508
 8102  LAT   Au 8642   0.816   0.408   5.304
 8103  LAT   Au 8643   1.020   0.612   5.304
 8104  LAT   Au 8644   0.816   0.612   5.508
 8105  LAT   Au 8645   1.020   0.408   5.508
 8106  LAT   Au 8646   1.224   0.408   5.304
 8107  LAT   Au 8647   1.428   0.612   5.304
 8108  LAT   Au 8648   1.224   0.612   5.508
 8109  LAT   Au 8649   1.428   0.408   5.508
 8110  LAT   Au 8650   1.632   0.408   5.304
 8111  LAT   Au 8651   1.836   0.612   5.304
 8112  LAT   Au 8652   1.632   0.612   5.508
 8113  LAT   Au 8653   1.836   0.408   5.508
 8114  LAT   Au 8654   2.040   0.408   5.304
 8115  LAT   Au 8655   2.244   0.612   5.304
 8116  LAT   Au 8656   2.040   0.612   5.508
 8117  LAT   Au 8657   2.244   0.408   5.508
 8118  LAT   Au 8658   2.448   0.408   5.304
 8119  LAT   Au 8659   2.652   0.612   5.304
 8120  LAT   Au 8660   2.448   0.612   5.508
 8121  LAT   Au 8661   2.652   0.408   5.508
 8122  LAT   Au 8662   2.856   0.408   5.304
 8123  LAT   Au 8663   3.060   0.612   5.304
 8124  LAT   Au 8664   2.856   0.612   5.508
 8125  LAT   Au 8665   3.060   0.408   5.508
 8126  LAT   Au 8666   3.264   0.408   5.304
 8127  LAT   Au 8667   3.264   0.612   5.508
 8128  LAT   Au 8668   3.468   0.408   5.508
 8129  LAT   Au 8669   3.672   0.408   5.304
 8130  LAT   Au 8670   3.876   0.408   5.508
 8131  LAT   Au 8671   4.080   0.408   5.304
 8132  LAT   Au 8672   4.284   0.612   5.304
 8133  LAT   Au 8673   4.080   0.612   5.508
 8134  LAT   Au 8674   4.284   0.408   5.508
 8135  LAT   Au 8675   4.488   0.408   5.304
 8136  LAT   Au 8676   4.692   0.612   5.304
 8137  LAT   Au 8677   4.488   0.612   5.508
 8138  LAT   Au 8678   4.692   0.408   5.508
 8139  LAT   Au 8679   4.896   0.408   5.304
 8140  LAT   Au 8680   5.100   0.612   5.304
 8141  LAT   Au 8681   4.896   0.612   5.508
 8142  LAT   Au 8682   5.100   0.408   5.508
 8143  LAT   Au 8683   5.304   0.408   5.304
 8144  LAT   Au 8684   5.508   0.612   5.304
 8145  LAT   Au 8685   5.304   0.612   5.508
 8146  LAT   Au 8686   5.508   0.408   5.508
 8147  LAT   Au 8687   5.712   0.408   5.304
 8148  LAT   Au 8688   5.916   0.612   5.304
 8149  LAT   Au 8689   5.712   0.612   5.508
 8150  LAT   Au 8690   5.916   0.408   5.508
 8151  LAT   Au 8691   6.120   0.408   5.304
 8152  LAT   Au 8692   6.324   0.612   5.304
 8153  LAT   Au 8693   6.120   0.612   5.508
 8154  LAT   Au 8694   6.324   0.408   5.508
 8155  LAT   Au 8695   6.528   0.408   5.304
 8156  LAT   Au 8696   6.732   0.612   5.304
 8157  LAT   Au 8697   6.528   0.612   5.508
 8158  LAT   Au 8698   6.732   0.408   5.508
 8159  LAT   Au 8699   6.936   0.408   5.304
 8160  LAT   Au 8700   7.140   0.612   5.304
 8161  LAT   Au 8701   6.936   0.612   5.508
 8162  LAT   Au 8702   7.140   0.408   5.508
 8163  LAT   Au 8703   0.000   0.816   5.304
 8164  LAT   Au 8704   0.204   1.020   5.304
 8165  LAT   Au 8705   0.000   1.020   5.508
 8166  LAT   Au 8706   0.204   0.816   5.508
 8167  LAT   Au 8707   0.408   0.816   5.304
 8168  LAT   Au 8708   0.612   1.020   5.304
 8169  LAT   Au 8709   0.408   1.020   5.508
 8170  LAT   Au 8710   0.612   0.816   5.508
 8171  LAT   Au 8711   0.816   0.816   5.304
 8172  LAT   Au 8712   1.020   1.020   5.304
 8173  LAT   Au 8713   0.816   1.020   5.508
 8174  LAT   Au 8714   1.020   0.816   5.508
 8175  LAT   Au 8715   1.224   0.816   5.304
 8176  LAT   Au 8716   1.428   1.020   5.304
 8177  LAT   Au 8717   1.224   1.020   5.508
 8178  LAT   Au 8718   1.428   0.816   5.508
 8179  LAT   Au 8719   1.632   0.816   5.304
 8180  LAT   Au 8720   1.836   1.020   5.304
 8181  LAT   Au 8721   1.632   1.020   5.508
 8182  LAT   Au 8722   1.836   0.816   5.508
 8183  LAT   Au 8723   2.040   0.816   5.304
 8184  LAT   Au 8724   2.040   1.020   5.508
 8185  LAT   Au 8725   2.244   0.816   5.508
 8186  LAT   Au 8726   2.448   0.816   5.304
 8187  LAT   Au 8727   4.896   0.816   5.304
 8188  LAT   Au 8728   5.100   0.816   5.508
 8189  LAT   Au 8729   5.304   0.816   5.304
 8190  LAT   Au 8730   5.508   1.020   5.304
 8191  LAT   Au 8731   5.304   1.020   5.508
 8192  LAT   Au 8732   5.508   0.816   5.508
 8193  LAT   Au 8733   5.712   0.816   5.304
 8194  LAT   Au 8734   5.916   1.020   5.304
 8195  LAT   Au 8735   5.712   1.020   5.508
 8196  LAT   Au 8736   5.916   0.816   5.508
 8197  LAT   Au 8737   6.120   0.816   5.304
 8198  LAT   Au 8738   6.324   1.020   5.304
 8199  LAT   Au 8739   6.120   1.020   5.508
 8200  LAT   Au 8740   6.324   0.816   5.508
 8201  LAT   Au 8741   6.528   0.816   5.304
 8202  LAT   Au 8742   6.732   1.020   5.304
 8203  LAT   Au 8743   6.528   1.020   5.508
 8204  LAT   Au 8744   6.732   0.816   5.508
 8205  LAT   Au 8745   6.936   0.816   5.304
 8206  LAT   Au 8746   7.140   1.020   5.304
 8207  LAT   Au 8747   6.936   1.020   5.508
 8208  LAT   Au 8748   7.140   0.816   5.508
 8209  LAT   Au 8749   0.000   1.224   5.304
 8210  LAT   Au 8750   0.204   1.428   5.304
 8211  LAT   Au 8751   0.000   1.428   5.508
 8212  LAT   Au 8752   0.204   1.224   5.508
 8213  LAT   Au 8753   0.408   1.224   5.304
 8214  LAT   Au 8754   0.612   1.428   5.304
 8215  LAT   Au 8755   0.408   1.428   5.508
 8216  LAT   Au 8756   0.612   1.224   5.508
 8217  LAT   Au 8757   0.816   1.224   5.304
 8218  LAT   Au 8758   1.020   1.428   5.304
 8219  LAT   Au 8759   0.816   1.428   5.508
 8220  LAT   Au 8760   1.020   1.224   5.508
 8221  LAT   Au 8761   1.224   1.224   5.304
 8222  LAT   Au 8762   1.428   1.428   5.304
 8223  LAT   Au 8763   1.224   1.428   5.508
 8224  LAT   Au 8764   1.428   1.224   5.508
 8225  LAT   Au 8765   1.632   1.224   5.304
 8226  LAT   Au 8766   5.508   1.224   5.508
 8227  LAT   Au 8767   5.712   1.224   5.304
 8228  LAT   Au 8768   5.916   1.428   5.304
 8229  LAT   Au 8769   5.712   1.428   5.508
 8230  LAT   Au 8770   5.916   1.224   5.508
 8231  LAT   Au 8771   6.120   1.224   5.304
 8232  LAT   Au 8772   6.324   1.428   5.304
 8233  LAT   Au 8773   6.120   1.428   5.508
 8234  LAT   Au 8774   6.324   1.224   5.508
 8235  LAT   Au 8775   6.528   1.224   5.304
 8236  LAT   Au 8776   6.732   1.428   5.304
 8237  LAT   Au 8777   6.528   1.428   5.508
 8238  LAT   Au 8778   6.732   1.224   5.508
 8239  LAT   Au 8779   6.936   1.224   5.304
 8240  LAT   Au 8780   7.140   1.428   5.304
 8241  LAT   Au 8781   6.936   1.428   5.508
 8242  LAT   Au 8782   7.140   1.224   5.508
 8243  LAT   Au 8783   0.000   1.632   5.304
 8244  LAT   Au 8784   0.204   1.836   5.304
 8245  LAT   Au 8785   0.000   1.836   5.508
 8246  LAT   Au 8786   0.204   1.632   5.508
 8247  LAT   Au 8787   0.408   1.632   5.304
 8248  LAT   Au 8788   0.612   1.836   5.304
 8249  LAT   Au 8789   0.408   1.836   5.508
 8250  LAT   Au 8790   0.612   1.632   5.508
 8251  LAT   Au 8791   0.816   1.632   5.304
 8252  LAT   Au 8792   1.020   1.836   5.304
 8253  LAT   Au 8793   0.816   1.836   5.508
 8254  LAT   Au 8794   1.020   1.632   5.508
 8255  LAT   Au 8795   1.224   1.632   5.304
 8256  LAT   Au 8796   5.916   1.632   5.508
 8257  LAT   Au 8797   6.120   1.632   5.304
 8258  LAT   Au 8798   6.324   1.836   5.304
 8259  LAT   Au 8799   6.120   1.836   5.508
 8260  LAT   Au 8800   6.324   1.632   5.508
 8261  LAT   Au 8801   6.528   1.632   5.304
 8262  LAT   Au 8802   6.732   1.836   5.304
 8263  LAT   Au 8803   6.528   1.836   5.508
 8264  LAT   Au 8804   6.732   1.632   5.508
 8265  LAT   Au 8805   6.936   1.632   5.304
 8266  LAT   Au 8806   7.140   1.836   5.304
 8267  LAT   Au 8807   6.936   1.836   5.508
 8268  LAT   Au 8808   7.140   1.632   5.508
 8269  LAT   Au 8809   0.000   2.040   5.304
 8270  LAT   Au 8810   0.204   2.244   5.304
 8271  LAT   Au 8811   0.000   2.244   5.508
 8272  LAT   Au 8812   0.204   2.040   5.508
 8273  LAT   Au 8813   0.408   2.040   5.304
 8274  LAT   Au 8814   0.612   2.244   5.304
 8275  LAT   Au 8815   0.408   2.244   5.508
 8276  LAT   Au 8816   0.612   2.040   5.508
 8277  LAT   Au 8817   0.816   2.040   5.304
 8278  LAT   Au 8818   0.816   2.244   5.508
 8279  LAT   Au 8819   1.020   2.040   5.508
 8280  LAT   Au 8820   6.324   2.244   5.304
 8281  LAT   Au 8821   6.324   2.040   5.508
 8282  LAT   Au 8822   6.528   2.040   5.304
 8283  LAT   Au 8823   6.732   2.244   5.304
 8284  LAT   Au 8824   6.528   2.244   5.508
 8285  LAT   Au 8825   6.732   2.040   5.508
 8286  LAT   Au 8826   6.936   2.040   5.304
 8287  LAT   Au 8827   7.140   2.244   5.304
 8288  LAT   Au 8828   6.936   2.244   5.508
 8289  LAT   Au 8829   7.140   2.040   5.508
 8290  LAT   Au 8830   0.000   2.448   5.304
 8291  LAT   Au 8831   0.204   2.652   5.304
 8292  LAT   Au 8832   0.000   2.652   5.508
 8293  LAT   Au 8833   0.204   2.448   5.508
 8294  LAT   Au 8834   0.408   2.448   5.304
 8295  LAT   Au 8835   0.612   2.652   5.304
 8296  LAT   Au 8836   0.408   2.652   5.508
 8297  LAT   Au 8837   0.612   2.448   5.508
 8298  LAT   Au 8838   0.816   2.448   5.304
 8299  LAT   Au 8839   6.528   2.448   5.304
 8300  LAT   Au 8840   6.732   2.652   5.304
 8301  LAT   Au 8841   6.528   2.652   5.508
 8302  LAT   Au 8842   6.732   2.448   5.508
 8303  LAT   Au 8843   6.936   2.448   5.304
 8304  LAT   Au 8844   7.140   2.652   5.304
 8305  LAT   Au 8845   6.936   2.652   5.508
 8306  LAT   Au 8846   7.140   2.448   5.508
 8307  LAT   Au 8847   0.000   2.856   5.304
 8308  LAT   Au 8848   0.204   3.060   5.304
 8309  LAT   Au 8849   0.000   3.060   5.508
 8310  LAT   Au 8850   0.204   2.856   5.508
 8311  LAT   Au 8851   0.408   2.856   5.304
 8312  LAT   Au 8852   0.612   3.060   5.304
 8313  LAT   Au 8853   0.408   3.060   5.508
 8314  LAT   Au 8854   0.612   2.856   5.508
 8315  LAT   Au 8855   6.528   2.856   5.304
 8316  LAT   Au 8856   6.732   3.060   5.304
 8317  LAT   Au 8857   6.732   2.856   5.508
 8318  LAT   Au 8858   6.936   2.856   5.304
 8319  LAT   Au 8859   7.140   3.060   5.304
 8320  LAT   Au 8860   6.936   3.060   5.508
 8321  LAT   Au 8861   7.140   2.856   5.508
 8322  LAT   Au 8862   0.000   3.264   5.304
 8323  LAT   Au 8863   0.204   3.468   5.304
 8324  LAT   Au 8864   0.000   3.468   5.508
 8325  LAT   Au 8865   0.204   3.264   5.508
 8326  LAT   Au 8866   0.408   3.264   5.304
 8327  LAT   Au 8867   0.408   3.468   5.508
 8328  LAT   Au 8868   0.612   3.264   5.508
 8329  LAT   Au 8869   6.732   3.468   5.304
 8330  LAT   Au 8870   6.732   3.264   5.508
 8331  LAT   Au 8871   6.936   3.264   5.304
 8332  LAT   Au 8872   7.140   3.468   5.304
 8333  LAT   Au 8873   6.936   3.468   5.508
 8334  LAT   Au 8874   7.140   3.264   5.508
 8335  LAT   Au 8875   0.000   3.672   5.304
 8336  LAT   Au 8876   0.204   3.876   5.304
 8337  LAT   Au 8877   0.000   3.876   5.508
 8338  LAT   Au 8878   0.204   3.672   5.508
 8339  LAT   Au 8879   0.408   3.672   5.304
 8340  LAT   Au 8880   0.408   3.876   5.508
 8341  LAT   Au 8881   6.732   3.876   5.304
 8342  LAT   Au 8882   6.732   3.672   5.508
 8343  LAT   Au 8883   6.936   3.672   5.304
 8344  LAT   Au 8884   7.140   3.876   5.304
 8345  LAT   Au 8885   6.936   3.876   5.508
 8346  LAT   Au 8886   7.140   3.672   5.508
 8347  LAT   Au 8887   0.000   4.080   5.304
 8348  LAT   Au 8888   0.204   4.284   5.304
 8349  LAT   Au 8889   0.000   4.284   5.508
 8350  LAT   Au 8890   0.204   4.080   5.508
 8351  LAT   Au 8891   0.408   4.080   5.304
 8352  LAT   Au 8892   0.612   4.284   5.304
 8353  LAT   Au 8893   0.408   4.284   5.508
 8354  LAT   Au 8894   0.612   4.080   5.508
 8355  LAT   Au 8895   6.732   4.284   5.304
 8356  LAT   Au 8896   6.528   4.284   5.508
 8357  LAT   Au 8897   6.732   4.080   5.508
 8358  LAT   Au 8898   6.936   4.080   5.304
 8359  LAT   Au 8899   7.140   4.284   5.304
 8360  LAT   Au 8900   6.936   4.284   5.508
 8361  LAT   Au 8901   7.140   4.080   5.508
 8362  LAT   Au 8902   0.000   4.488   5.304
 8363  LAT   Au 8903   0.204   4.692   5.304
 8364  LAT   Au 8904   0.000   4.692   5.508
 8365  LAT   Au 8905   0.204   4.488   5.508
 8366  LAT   Au 8906   0.408   4.488   5.304
 8367  LAT   Au 8907   0.612   4.692   5.304
 8368  LAT   Au 8908   0.408   4.692   5.508
 8369  LAT   Au 8909   0.612   4.488   5.508
 8370  LAT   Au 8910   6.528   4.488   5.304
 8371  LAT   Au 8911   6.732   4.692   5.304
 8372  LAT   Au 8912   6.528   4.692   5.508
 8373  LAT   Au 8913   6.732   4.488   5.508
 8374  LAT   Au 8914   6.936   4.488   5.304
 8375  LAT   Au 8915   7.140   4.692   5.304
 8376  LAT   Au 8916   6.936   4.692   5.508
 8377  LAT   Au 8917   7.140   4.488   5.508
 8378  LAT   Au 8918   0.000   4.896   5.304
 8379  LAT   Au 8919   0.204   5.100   5.304
 8380  LAT   Au 8920   0.000   5.100   5.508
 8381  LAT   Au 8921   0.204   4.896   5.508
 8382  LAT   Au 8922   0.408   4.896   5.304
 8383  LAT   Au 8923   0.612   5.100   5.304
 8384  LAT   Au 8924   0.408   5.100   5.508
 8385  LAT   Au 8925   0.612   4.896   5.508
 8386  LAT   Au 8926   0.816   4.896   5.304
 8387  LAT   Au 8927   0.816   5.100   5.508
 8388  LAT   Au 8928   6.324   5.100   5.304
 8389  LAT   Au 8929   6.324   4.896   5.508
 8390  LAT   Au 8930   6.528   4.896   5.304
 8391  LAT   Au 8931   6.732   5.100   5.304
 8392  LAT   Au 8932   6.528   5.100   5.508
 8393  LAT   Au 8933   6.732   4.896   5.508
 8394  LAT   Au 8934   6.936   4.896   5.304
 8395  LAT   Au 8935   7.140   5.100   5.304
 8396  LAT   Au 8936   6.936   5.100   5.508
 8397  LAT   Au 8937   7.140   4.896   5.508
 8398  LAT   Au 8938   0.000   5.304   5.304
 8399  LAT   Au 8939   0.204   5.508   5.304
 8400  LAT   Au 8940   0.000   5.508   5.508
 8401  LAT   Au 8941   0.204   5.304   5.508
 8402  LAT   Au 8942   0.408   5.304   5.304
 8403  LAT   Au 8943   0.612   5.508   5.304
 8404  LAT   Au 8944   0.408   5.508   5.508
 8405  LAT   Au 8945   0.612   5.304   5.508
 8406  LAT   Au 8946   0.816   5.304   5.304
 8407  LAT   Au 8947   1.020   5.508   5.304
 8408  LAT   Au 8948   0.816   5.508   5.508
 8409  LAT   Au 8949   1.020   5.304   5.508
 8410  LAT   Au 8950   1.224   5.508   5.508
 8411  LAT   Au 8951   5.916   5.508   5.304
 8412  LAT   Au 8952   6.120   5.304   5.304
 8413  LAT   Au 8953   6.324   5.508   5.304
 8414  LAT   Au 8954   6.120   5.508   5.508
 8415  LAT   Au 8955   6.324   5.304   5.508
 8416  LAT   Au 8956   6.528   5.304   5.304
 8417  LAT   Au 8957   6.732   5.508   5.304
 8418  LAT   Au 8958   6.528   5.508   5.508
 8419  LAT   Au 8959   6.732   5.304   5.508
 8420  LAT   Au 8960   6.936   5.304   5.304
 8421  LAT   Au 8961   7.140   5.508   5.304
 8422  LAT   Au 8962   6.936   5.508   5.508
 8423  LAT   Au 8963   7.140   5.304   5.508
 8424  LAT   Au 8964   0.000   5.712   5.304
 8425  LAT   Au 8965   0.204   5.916   5.304
 8426  LAT   Au 8966   0.000   5.916   5.508
 8427  LAT   Au 8967   0.204   5.712   5.508
 8428  LAT   Au 8968   0.408   5.712   5.304
 8429  LAT   Au 8969   0.612   5.916   5.304
 8430  LAT   Au 8970   0.408   5.916   5.508
 8431  LAT   Au 8971   0.612   5.712   5.508
 8432  LAT   Au 8972   0.816   5.712   5.304
 8433  LAT   Au 8973   1.020   5.916   5.304
 8434  LAT   Au 8974   0.816   5.916   5.508
 8435  LAT   Au 8975   1.020   5.712   5.508
 8436  LAT   Au 8976   1.224   5.712   5.304
 8437  LAT   Au 8977   1.428   5.916   5.304
 8438  LAT   Au 8978   1.224   5.916   5.508
 8439  LAT   Au 8979   1.428   5.712   5.508
 8440  LAT   Au 8980   1.632   5.916   5.508
 8441  LAT   Au 8981   5.508   5.916   5.304
 8442  LAT   Au 8982   5.916   5.916   5.304
 8443  LAT   Au 8983   5.712   5.916   5.508
 8444  LAT   Au 8984   5.916   5.712   5.508
 8445  LAT   Au 8985   6.120   5.712   5.304
 8446  LAT   Au 8986   6.324   5.916   5.304
 8447  LAT   Au 8987   6.120   5.916   5.508
 8448  LAT   Au 8988   6.324   5.712   5.508
 8449  LAT   Au 8989   6.528   5.712   5.304
 8450  LAT   Au 8990   6.732   5.916   5.304
 8451  LAT   Au 8991   6.528   5.916   5.508
 8452  LAT   Au 8992   6.732   5.712   5.508
 8453  LAT   Au 8993   6.936   5.712   5.304
 8454  LAT   Au 8994   7.140   5.916   5.304
 8455  LAT   Au 8995   6.936   5.916   5.508
 8456  LAT   Au 8996   7.140   5.712   5.508
 8457  LAT   Au 8997   0.000   6.120   5.304
 8458  LAT   Au 8998   0.204   6.324   5.304
 8459  LAT   Au 8999   0.000   6.324   5.508
 8460  LAT   Au 9000   0.204   6.120   5.508
 8461  LAT   Au 9001   0.408   6.120   5.304
 8462  LAT   Au 9002   0.612   6.324   5.304
 8463  LAT   Au 9003   0.408   6.324   5.508
 8464  LAT   Au 9004   0.612   6.120   5.508
 8465  LAT   Au 9005   0.816   6.120   5.304
 8466  LAT   Au 9006   1.020   6.324   5.304
 8467  LAT   Au 9007   0.816   6.324   5.508
 8468  LAT   Au 9008   1.020   6.120   5.508
 8469  LAT   Au 9009   1.224   6.120   5.304
 8470  LAT   Au 9010   1.428   6.324   5.304
 8471  LAT   Au 9011   1.224   6.324   5.508
 8472  LAT   Au 9012   1.428   6.120   5.508
 8473  LAT   Au 9013   1.632   6.120   5.304
 8474  LAT   Au 9014   1.836   6.324   5.304
 8475  LAT   Au 9015   1.632   6.324   5.508
 8476  LAT   Au 9016   1.836   6.120   5.508
 8477  LAT   Au 9017   2.244   6.324   5.304
 8478  LAT   Au 9018   2.040   6.324   5.508
 8479  LAT   Au 9019   5.100   6.324   5.304
 8480  LAT   Au 9020   4.896   6.324   5.508
 8481  LAT   Au 9021   5.304   6.120   5.304
 8482  LAT   Au 9022   5.508   6.324   5.304
 8483  LAT   Au 9023   5.304   6.324   5.508
 8484  LAT   Au 9024   5.508   6.120   5.508
 8485  LAT   Au 9025   5.712   6.120   5.304
 8486  LAT   Au 9026   5.916   6.324   5.304
 8487  LAT   Au 9027   5.712   6.324   5.508
 8488  LAT   Au 9028   5.916   6.120   5.508
 8489  LAT   Au 9029   6.120   6.120   5.304
 8490  LAT   Au 9030   6.324   6.324   5.304
 8491  LAT   Au 9031   6.120   6.324   5.508
 8492  LAT   Au 9032   6.324   6.120   5.508
 8493  LAT   Au 9033   6.528   6.120   5.304
 8494  LAT   Au 9034   6.732   6.324   5.304
 8495  LAT   Au 9035   6.528   6.324   5.508
 8496  LAT   Au 9036   6.732   6.120   5.508
 8497  LAT   Au 9037   6.936   6.120   5.304
 8498  LAT   Au 9038   7.140   6.324   5.304
 8499  LAT   Au 9039   6.936   6.324   5.508
 8500  LAT   Au 9040   7.140   6.120   5.508
 8501  LAT   Au 9041   0.000   6.528   5.304
 8502  LAT   Au 9042   0.204   6.732   5.304
 8503  LAT   Au 9043   0.000   6.732   5.508
 8504  LAT   Au 9044   0.204   6.528   5.508
 8505  LAT   Au 9045   0.408   6.528   5.304
 8506  LAT   Au 9046   0.612   6.732   5.304
 8507  LAT   Au 9047   0.408   6.732   5.508
 8508  LAT   Au 9048   0.612   6.528   5.508
 8509  LAT   Au 9049   0.816   6.528   5.304
 8510  LAT   Au 9050   1.020   6.732   5.304
 8511  LAT   Au 9051   0.816   6.732   5.508
 8512  LAT   Au 9052   1.020   6.528   5.508
 8513  LAT   Au 9053   1.224   6.528   5.304
 8514  LAT   Au 9054   1.428   6.732   5.304
 8515  LAT   Au 9055   1.224   6.732   5.508
 8516  LAT   Au 9056   1.428   6.528   5.508
 8517  LAT   Au 9057   1.632   6.528   5.304
 8518  LAT   Au 9058   1.836   6.732   5.304
 8519  LAT   Au 9059   1.632   6.732   5.508
 8520  LAT   Au 9060   1.836   6.528   5.508
 8521  LAT   Au 9061   2.040   6.528   5.304
 8522  LAT   Au 9062   2.244   6.732   5.304
 8523  LAT   Au 9063   2.040   6.732   5.508
 8524  LAT   Au 9064   2.244   6.528   5.508
 8525  LAT   Au 9065   2.448   6.528   5.304
 8526  LAT   Au 9066   2.652   6.732   5.304
 8527  LAT   Au 9067   2.448   6.732   5.508
 8528  LAT   Au 9068   2.652   6.528   5.508
 8529  LAT   Au 9069   2.856   6.528   5.304
 8530  LAT   Au 9070   3.060   6.732   5.304
 8531  LAT   Au 9071   2.856   6.732   5.508
 8532  LAT   Au 9072   3.468   6.732   5.304
 8533  LAT   Au 9073   3.264   6.732   5.508
 8534  LAT   Au 9074   3.876   6.732   5.304
 8535  LAT   Au 9075   3.672   6.732   5.508
 8536  LAT   Au 9076   4.284   6.732   5.304
 8537  LAT   Au 9077   4.080   6.732   5.508
 8538  LAT   Au 9078   4.284   6.528   5.508
 8539  LAT   Au 9079   4.488   6.528   5.304
 8540  LAT   Au 9080   4.692   6.732   5.304
 8541  LAT   Au 9081   4.488   6.732   5.508
 8542  LAT   Au 9082   4.692   6.528   5.508
 8543  LAT   Au 9083   4.896   6.528   5.304
 8544  LAT   Au 9084   5.100   6.732   5.304
 8545  LAT   Au 9085   4.896   6.732   5.508
 8546  LAT   Au 9086   5.100   6.528   5.508
 8547  LAT   Au 9087   5.304   6.528   5.304
 8548  LAT   Au 9088   5.508   6.732   5.304
 8549  LAT   Au 9089   5.304   6.732   5.508
 8550  LAT   Au 9090   5.508   6.528   5.508
 8551  LAT   Au 9091   5.712   6.528   5.304
 8552  LAT   Au 9092   5.916   6.732   5.304
 8553  LAT   Au 9093   5.712   6.732   5.508
 8554  LAT   Au 9094   5.916   6.528   5.508
 8555  LAT   Au 9095   6.120   6.528   5.304
 8556  LAT   Au 9096   6.324   6.732   5.304
 8557  LAT   Au 9097   6.120   6.732   5.508
 8558  LAT   Au 9098   6.324   6.528   5.508
 8559  LAT   Au 9099   6.528   6.528   5.304
 8560  LAT   Au 9100   6.732   6.732   5.304
 8561  LAT   Au 9101   6.528   6.732   5.508
 8562  LAT   Au 9102   6.732   6.528   5.508
 8563  LAT   Au 9103   6.936   6.528   5.304
 8564  LAT   Au 9104   7.140   6.732   5.304
 8565  LAT   Au 9105   6.936   6.732   5.508
 8566  LAT   Au 9106   7.140   6.528   5.508
 8567  LAT   Au 9107   0.000   6.936   5.304
 8568  LAT   Au 9108   0.204   7.140   5.304
 8569  LAT   Au 9109   0.000   7.140   5.508
 8570  LAT   Au 9110   0.204   6.936   5.508
 8571  LAT   Au 9111   0.408   6.936   5.304
 8572  LAT   Au 9112   0.612   7.140   5.304
 8573  LAT   Au 9113   0.408   7.140   5.508
 8574  LAT   Au 9114   0.612   6.936   5.508
 8575  LAT   Au 9115   0.816   6.936   5.304
 8576  LAT   Au 9116   1.020   7.140   5.304
 8577  LAT   Au 9117   0.816   7.140   5.508
 8578  LAT   Au 9118   1.020   6.936   5.508
 8579  LAT   Au 9119   1.224   6.936   5.304
 8580  LAT   Au 9120   1.428   7.140   5.304
 8581  LAT   Au 9121   1.224   7.140   5.508
 8582  LAT   Au 9122   1.428   6.936   5.508
 8583  LAT   Au 9123   1.632   6.936   5.304
 8584  LAT   Au 9124   1.836   7.140   5.304
 8585  LAT   Au 9125   1.632   7.140   5.508
 8586  LAT   Au 9126   1.836   6.936   5.508
 8587  LAT   Au 9127   2.040   6.936   5.304
 8588  LAT   Au 9128   2.244   7.140   5.304
 8589  LAT   Au 9129   2.040   7.140   5.508
 8590  LAT   Au 9130   2.244   6.936   5.508
 8591  LAT   Au 9131   2.448   6.936   5.304
 8592  LAT   Au 9132   2.652   7.140   5.304
 8593  LAT   Au 9133   2.448   7.140   5.508
 8594  LAT   Au 9134   2.652   6.936   5.508
 8595  LAT   Au 9135   2.856   6.936   5.304
 8596  LAT   Au 9136   3.060   7.140   5.304
 8597  LAT   Au 9137   2.856   7.140   5.508
 8598  LAT   Au 9138   3.060   6.936   5.508
 8599  LAT   Au 9139   3.264   6.936   5.304
 8600  LAT   Au 9140   3.468   7.140   5.304
 8601  LAT   Au 9141   3.264   7.140   5.508
 8602  LAT   Au 9142   3.468   6.936   5.508
 8603  LAT   Au 9143   3.672   6.936   5.304
 8604  LAT   Au 9144   3.876   7.140   5.304
 8605  LAT   Au 9145   3.672   7.140   5.508
 8606  LAT   Au 9146   3.876   6.936   5.508
 8607  LAT   Au 9147   4.080   6.936   5.304
 8608  LAT   Au 9148   4.284   7.140   5.304
 8609  LAT   Au 9149   4.080   7.140   5.508
 8610  LAT   Au 9150   4.284   6.936   5.508
 8611  LAT   Au 9151   4.488   6.936   5.304
 8612  LAT   Au 9152   4.692   7.140   5.304
 8613  LAT   Au 9153   4.488   7.140   5.508
 8614  LAT   Au 9154   4.692   6.936   5.508
 8615  LAT   Au 9155   4.896   6.936   5.304
 8616  LAT   Au 9156   5.100   7.140   5.304
 8617  LAT   Au 9157   4.896   7.140   5.508
 8618  LAT   Au 9158   5.100   6.936   5.508
 8619  LAT   Au 9159   5.304   6.936   5.304
 8620  LAT   Au 9160   5.508   7.140   5.304
 8621  LAT   Au 9161   5.304   7.140   5.508
 8622  LAT   Au 9162   5.508   6.936   5.508
 8623  LAT   Au 9163   5.712   6.936   5.304
 8624  LAT   Au 9164   5.916   7.140   5.304
 8625  LAT   Au 9165   5.712   7.140   5.508
 8626  LAT   Au 9166   5.916   6.936   5.508
 8627  LAT   Au 9167   6.120   6.936   5.304
 8628  LAT   Au 9168   6.324   7.140   5.304
 8629  LAT   Au 9169   6.120   7.140   5.508
 8630  LAT   Au 9170   6.324   6.936   5.508
 8631  LAT   Au 9171   6.528   6.936   5.304
 8632  LAT   Au 9172   6.732   7.140   5.304
 8633  LAT   Au 9173   6.528   7.140   5.508
 8634  LAT   Au 9174   6.732   6.936   5.508
 8635  LAT   Au 9175   6.936   6.936   5.304
 8636  LAT   Au 9176   7.140   7.140   5.304
 8637  LAT   Au 9177   6.936   7.140   5.508
 8638  LAT   Au 9178   7.140   6.936   5.508
 8639  LAT   Au 9179   0.000   0.000   5.712
 8640  LAT   Au 9180   0.204   0.204   5.712
 8641  LAT   Au 9181   0.000   0.204   5.916
 8642  LAT   Au 9182   0.204   0.000   5.916
 8643  LAT   Au 9183   0.408   0.000   5.712
 8644  LAT   Au 9184   0.612   0.204   5.712
 8645  LAT   Au 9185   0.408   0.204   5.916
 8646  LAT   Au 9186   0.612   0.000   5.916
 8647  LAT   Au 9187   0.816   0.000   5.712
 8648  LAT   Au 9188   1.020   0.204   5.712
 8649  LAT   Au 9189   0.816   0.204   5.916
 8650  LAT   Au 9190   1.020   0.000   5.916
 8651  LAT   Au 9191   1.224   0.000   5.712
 8652  LAT   Au 9192   1.428   0.204   5.712
 8653  LAT   Au 9193   1.224   0.204   5.916
 8654  LAT   Au 9194   1.428   0.000   5.916
 8655  LAT   Au 9195   1.632   0.000   5.712
 8656  LAT   Au 9196   1.836   0.204   5.712
 8657  LAT   Au 9197   1.632   0.204   5.916
 8658  LAT   Au 9198   1.836   0.000   5.916
 8659  LAT   Au 9199   2.040   0.000   5.712
 8660  LAT   Au 9200   2.244   0.204   5.712
 8661  LAT   Au 9201   2.040   0.204   5.916
 8662  LAT   Au 9202   2.244   0.000   5.916
 8663  LAT   Au 9203   2.448   0.000   5.712
 8664  LAT   Au 9204   2.652   0.204   5.712
 8665  LAT   Au 9205   2.448   0.204   5.916
 8666  LAT   Au 9206   2.652   0.000   5.916
 8667  LAT   Au 9207   2.856   0.000   5.712
 8668  LAT   Au 9208   3.060   0.204   5.712
 8669  LAT   Au 9209   2.856   0.204   5.916
 8670  LAT   Au 9210   3.060   0.000   5.916
 8671  LAT   Au 9211   3.264   0.000   5.712
 8672  LAT   Au 9212   3.468   0.204   5.712
 8673  LAT   Au 9213   3.264   0.204   5.916
 8674  LAT   Au 9214   3.468   0.000   5.916
 8675  LAT   Au 9215   3.672   0.000   5.712
 8676  LAT   Au 9216   3.876   0.204   5.712
 8677  LAT   Au 9217   3.672   0.204   5.916
 8678  LAT   Au 9218   3.876   0.000   5.916
 8679  LAT   Au 9219   4.080   0.000   5.712
 8680  LAT   Au 9220   4.284   0.204   5.712
 8681  LAT   Au 9221   4.080   0.204   5.916
 8682  LAT   Au 9222   4.284   0.000   5.916
 8683  LAT   Au 9223   4.488   0.000   5.712
 8684  LAT   Au 9224   4.692   0.204   5.712
 8685  LAT   Au 9225   4.488   0.204   5.916
 8686  LAT   Au 9226   4.692   0.000   5.916
 8687  LAT   Au 9227   4.896   0.000   5.712
 8688  LAT   Au 9228   5.100   0.204   5.712
 8689  LAT   Au 9229   4.896   0.204   5.916
 8690  LAT   Au 9230   5.100   0.000   5.916
 8691  LAT   Au 9231   5.304   0.000   5.712
 8692  LAT   Au 9232   5.508   0.204   5.712
 8693  LAT   Au 9233   5.304   0.204   5.916
 8694  LAT   Au 9234   5.508   0.000   5.916
 8695  LAT   Au 9235   5.712   0.000   5.712
 8696  LAT   Au 9236   5.916   0.204   5.712
 8697  LAT   Au 9237   5.712   0.204   5.916
 8698  LAT   Au 9238   5.916   0.000   5.916
 8699  LAT   Au 9239   6.120   0.000   5.712
 8700  LAT   Au 9240   6.324   0.204   5.712
 8701  LAT   Au 9241   6.120   0.204   5.916
 8702  LAT   Au 9242   6.324   0.000   5.916
 8703  LAT   Au 9243   6.528   0.000   5.712
 8704  LAT   Au 9244   6.732   0.204   5.712
 8705  LAT   Au 9245   6.528   0.204   5.916
 8706  LAT   Au 9246   6.732   0.000   5.916
 8707  LAT   Au 9247   6.936   0.000   5.712
 8708  LAT   Au 9248   7.140   0.204   5.712
 8709  LAT   Au 9249   6.936   0.204   5.916
 8710  LAT   Au 9250   7.140   0.000   5.916
 8711  LAT   Au 9251   0.000   0.408   5.712
 8712  LAT   Au 9252   0.204   0.612   5.712
 8713  LAT   Au 9253   0.000   0.612   5.916
 8714  LAT   Au 9254   0.204   0.408   5.916
 8715  LAT   Au 9255   0.408   0.408   5.712
 8716  LAT   Au 9256   0.612   0.612   5.712
 8717  LAT   Au 9257   0.408   0.612   5.916
 8718  LAT   Au 9258   0.612   0.408   5.916
 8719  LAT   Au 9259   0.816   0.408   5.712
 8720  LAT   Au 9260   1.020   0.612   5.712
 8721  LAT   Au 9261   0.816   0.612   5.916
 8722  LAT   Au 9262   1.020   0.408   5.916
 8723  LAT   Au 9263   1.224   0.408   5.712
 8724  LAT   Au 9264   1.428   0.612   5.712
 8725  LAT   Au 9265   1.224   0.612   5.916
 8726  LAT   Au 9266   1.428   0.408   5.916
 8727  LAT   Au 9267   1.632   0.408   5.712
 8728  LAT   Au 9268   1.836   0.612   5.712
 8729  LAT   Au 9269   1.632   0.612   5.916
 8730  LAT   Au 9270   1.836   0.408   5.916
 8731  LAT   Au 9271   2.040   0.408   5.712
 8732  LAT   Au 9272   2.244   0.612   5.712
 8733  LAT   Au 9273   2.040   0.612   5.916
 8734  LAT   Au 9274   2.244   0.408   5.916
 8735  LAT   Au 9275   2.448   0.408   5.712
 8736  LAT   Au 9276   2.652   0.612   5.712
 8737  LAT   Au 9277   2.448   0.612   5.916
 8738  LAT   Au 9278   2.652   0.408   5.916
 8739  LAT   Au 9279   2.856   0.408   5.712
 8740  LAT   Au 9280   3.060   0.612   5.712
 8741  LAT   Au 9281   2.856   0.612   5.916
 8742  LAT   Au 9282   3.060   0.408   5.916
 8743  LAT   Au 9283   3.264   0.408   5.712
 8744  LAT   Au 9284   3.264   0.612   5.916
 8745  LAT   Au 9285   3.468   0.408   5.916
 8746  LAT   Au 9286   3.672   0.408   5.712
 8747  LAT   Au 9287   3.876   0.408   5.916
 8748  LAT   Au 9288   4.080   0.408   5.712
 8749  LAT   Au 9289   4.284   0.612   5.712
 8750  LAT   Au 9290   4.080   0.612   5.916
 8751  LAT   Au 9291   4.284   0.408   5.916
 8752  LAT   Au 9292   4.488   0.408   5.712
 8753  LAT   Au 9293   4.692   0.612   5.712
 8754  LAT   Au 9294   4.488   0.612   5.916
 8755  LAT   Au 9295   4.692   0.408   5.916
 8756  LAT   Au 9296   4.896   0.408   5.712
 8757  LAT   Au 9297   5.100   0.612   5.712
 8758  LAT   Au 9298   4.896   0.612   5.916
 8759  LAT   Au 9299   5.100   0.408   5.916
 8760  LAT   Au 9300   5.304   0.408   5.712
 8761  LAT   Au 9301   5.508   0.612   5.712
 8762  LAT   Au 9302   5.304   0.612   5.916
 8763  LAT   Au 9303   5.508   0.408   5.916
 8764  LAT   Au 9304   5.712   0.408   5.712
 8765  LAT   Au 9305   5.916   0.612   5.712
 8766  LAT   Au 9306   5.712   0.612   5.916
 8767  LAT   Au 9307   5.916   0.408   5.916
 8768  LAT   Au 9308   6.120   0.408   5.712
 8769  LAT   Au 9309   6.324   0.612   5.712
 8770  LAT   Au 9310   6.120   0.612   5.916
 8771  LAT   Au 9311   6.324   0.408   5.916
 8772  LAT   Au 9312   6.528   0.408   5.712
 8773  LAT   Au 9313   6.732   0.612   5.712
 8774  LAT   Au 9314   6.528   0.612   5.916
 8775  LAT   Au 9315   6.732   0.408   5.916
 8776  LAT   Au 9316   6.936   0.408   5.712
 8777  LAT   Au 9317   7.140   0.612   5.712
 8778  LAT   Au 9318   6.936   0.612   5.916
 8779  LAT   Au 9319   7.140   0.408   5.916
 8780  LAT   Au 9320   0.000   0.816   5.712
 8781  LAT   Au 9321   0.204   1.020   5.712
 8782  LAT   Au 9322   0.000   1.020   5.916
 8783  LAT   Au 9323   0.204   0.816   5.916
 8784  LAT   Au 9324   0.408   0.816   5.712
 8785  LAT   Au 9325   0.612   1.020   5.712
 8786  LAT   Au 9326   0.408   1.020   5.916
 8787  LAT   Au 9327   0.612   0.816   5.916
 8788  LAT   Au 9328   0.816   0.816   5.712
 8789  LAT   Au 9329   1.020   1.020   5.712
 8790  LAT   Au 9330   0.816   1.020   5.916
 8791  LAT   Au 9331   1.020   0.816   5.916
 8792  LAT   Au 9332   1.224   0.816   5.712
 8793  LAT   Au 9333   1.428   1.020   5.712
 8794  LAT   Au 9334   1.224   1.020   5.916
 8795  LAT   Au 9335   1.428   0.816   5.916
 8796  LAT   Au 9336   1.632   0.816   5.712
 8797  LAT   Au 9337   1.836   1.020   5.712
 8798  LAT   Au 9338   1.632   1.020   5.916
 8799  LAT   Au 9339   1.836   0.816   5.916
 8800  LAT   Au 9340   2.040   0.816   5.712
 8801  LAT   Au 9341   2.040   1.020   5.916
 8802  LAT   Au 9342   2.244   0.816   5.916
 8803  LAT   Au 9343   2.448   0.816   5.712
 8804  LAT   Au 9344   4.896   0.816   5.712
 8805  LAT   Au 9345   5.100   0.816   5.916
 8806  LAT   Au 9346   5.304   0.816   5.712
 8807  LAT   Au 9347   5.508   1.020   5.712
 8808  LAT   Au 9348   5.304   1.020   5.916
 8809  LAT   Au 9349   5.508   0.816   5.916
 8810  LAT   Au 9350   5.712   0.816   5.712
 8811  LAT   Au 9351   5.916   1.020   5.712
 8812  LAT   Au 9352   5.712   1.020   5.916
 8813  LAT   Au 9353   5.916   0.816   5.916
 8814  LAT   Au 9354   6.120   0.816   5.712
 8815  LAT   Au 9355   6.324   1.020   5.712
 8816  LAT   Au 9356   6.120   1.020   5.916
 8817  LAT   Au 9357   6.324   0.816   5.916
 8818  LAT   Au 9358   6.528   0.816   5.712
 8819  LAT   Au 9359   6.732   1.020   5.712
 8820  LAT   Au 9360   6.528   1.020   5.916
 8821  LAT   Au 9361   6.732   0.816   5.916
 8822  LAT   Au 9362   6.936   0.816   5.712
 8823  LAT   Au 9363   7.140   1.020   5.712
 8824  LAT   Au 9364   6.936   1.020   5.916
 8825  LAT   Au 9365   7.140   0.816   5.916
 8826  LAT   Au 9366   0.000   1.224   5.712
 8827  LAT   Au 9367   0.204   1.428   5.712
 8828  LAT   Au 9368   0.000   1.428   5.916
 8829  LAT   Au 9369   0.204   1.224   5.916
 8830  LAT   Au 9370   0.408   1.224   5.712
 8831  LAT   Au 9371   0.612   1.428   5.712
 8832  LAT   Au 9372   0.408   1.428   5.916
 8833  LAT   Au 9373   0.612   1.224   5.916
 8834  LAT   Au 9374   0.816   1.224   5.712
 8835  LAT   Au 9375   1.020   1.428   5.712
 8836  LAT   Au 9376   0.816   1.428   5.916
 8837  LAT   Au 9377   1.020   1.224   5.916
 8838  LAT   Au 9378   1.224   1.224   5.712
 8839  LAT   Au 9379   1.428   1.428   5.712
 8840  LAT   Au 9380   1.224   1.428   5.916
 8841  LAT   Au 9381   1.428   1.224   5.916
 8842  LAT   Au 9382   1.632   1.224   5.712
 8843  LAT   Au 9383   5.508   1.224   5.916
 8844  LAT   Au 9384   5.712   1.224   5.712
 8845  LAT   Au 9385   5.916   1.428   5.712
 8846  LAT   Au 9386   5.712   1.428   5.916
 8847  LAT   Au 9387   5.916   1.224   5.916
 8848  LAT   Au 9388   6.120   1.224   5.712
 8849  LAT   Au 9389   6.324   1.428   5.712
 8850  LAT   Au 9390   6.120   1.428   5.916
 8851  LAT   Au 9391   6.324   1.224   5.916
 8852  LAT   Au 9392   6.528   1.224   5.712
 8853  LAT   Au 9393   6.732   1.428   5.712
 8854  LAT   Au 9394   6.528   1.428   5.916
 8855  LAT   Au 9395   6.732   1.224   5.916
 8856  LAT   Au 9396   6.936   1.224   5.712
 8857  LAT   Au 9397   7.140   1.428   5.712
 8858  LAT   Au 9398   6.936   1.428   5.916
 8859  LAT   Au 9399   7.140   1.224   5.916
 8860  LAT   Au 9400   0.000   1.632   5.712
 8861  LAT   Au 9401   0.204   1.836   5.712
 8862  LAT   Au 9402   0.000   1.836   5.916
 8863  LAT   Au 9403   0.204   1.632   5.916
 8864  LAT   Au 9404   0.408   1.632   5.712
 8865  LAT   Au 9405   0.612   1.836   5.712
 8866  LAT   Au 9406   0.408   1.836   5.916
 8867  LAT   Au 9407   0.612   1.632   5.916
 8868  LAT   Au 9408   0.816   1.632   5.712
 8869  LAT   Au 9409   1.020   1.836   5.712
 8870  LAT   Au 9410   0.816   1.836   5.916
 8871  LAT   Au 9411   1.020   1.632   5.916
 8872  LAT   Au 9412   1.224   1.632   5.712
 8873  LAT   Au 9413   5.916   1.632   5.916
 8874  LAT   Au 9414   6.120   1.632   5.712
 8875  LAT   Au 9415   6.324   1.836   5.712
 8876  LAT   Au 9416   6.120   1.836   5.916
 8877  LAT   Au 9417   6.324   1.632   5.916
 8878  LAT   Au 9418   6.528   1.632   5.712
 8879  LAT   Au 9419   6.732   1.836   5.712
 8880  LAT   Au 9420   6.528   1.836   5.916
 8881  LAT   Au 9421   6.732   1.632   5.916
 8882  LAT   Au 9422   6.936   1.632   5.712
 8883  LAT   Au 9423   7.140   1.836   5.712
 8884  LAT   Au 9424   6.936   1.836   5.916
 8885  LAT   Au 9425   7.140   1.632   5.916
 8886  LAT   Au 9426   0.000   2.040   5.712
 8887  LAT   Au 9427   0.204   2.244   5.712
 8888  LAT   Au 9428   0.000   2.244   5.916
 8889  LAT   Au 9429   0.204   2.040   5.916
 8890  LAT   Au 9430   0.408   2.040   5.712
 8891  LAT   Au 9431   0.612   2.244   5.712
 8892  LAT   Au 9432   0.408   2.244   5.916
 8893  LAT   Au 9433   0.612   2.040   5.916
 8894  LAT   Au 9434   0.816   2.040   5.712
 8895  LAT   Au 9435   0.816   2.244   5.916
 8896  LAT   Au 9436   1.020   2.040   5.916
 8897  LAT   Au 9437   6.324   2.244   5.712
 8898  LAT   Au 9438   6.324   2.040   5.916
 8899  LAT   Au 9439   6.528   2.040   5.712
 8900  LAT   Au 9440   6.732   2.244   5.712
 8901  LAT   Au 9441   6.528   2.244   5.916
 8902  LAT   Au 9442   6.732   2.040   5.916
 8903  LAT   Au 9443   6.936   2.040   5.712
 8904  LAT   Au 9444   7.140   2.244   5.712
 8905  LAT   Au 9445   6.936   2.244   5.916
 8906  LAT   Au 9446   7.140   2.040   5.916
 8907  LAT   Au 9447   0.000   2.448   5.712
 8908  LAT   Au 9448   0.204   2.652   5.712
 8909  LAT   Au 9449   0.000   2.652   5.916
 8910  LAT   Au 9450   0.204   2.448   5.916
 8911  LAT   Au 9451   0.408   2.448   5.712
 8912  LAT   Au 9452   0.612   2.652   5.712
 8913  LAT   Au 9453   0.408   2.652   5.916
 8914  LAT   Au 9454   0.612   2.448   5.916
 8915  LAT   Au 9455   0.816   2.448   5.712
 8916  LAT   Au 9456   6.528   2.448   5.712
 8917  LAT   Au 9457   6.732   2.652   5.712
 8918  LAT   Au 9458   6.528   2.652   5.916
 8919  LAT   Au 9459   6.732   2.448   5.916
 8920  LAT   Au 9460   6.936   2.448   5.712
 8921  LAT   Au 9461   7.140   2.652   5.712
 8922  LAT   Au 9462   6.936   2.652   5.916
 8923  LAT   Au 9463   7.140   2.448   5.916
 8924  LAT   Au 9464   0.000   2.856   5.712
 8925  LAT   Au 9465   0.204   3.060   5.712
 8926  LAT   Au 9466   0.000   3.060   5.916
 8927  LAT   Au 9467   0.204   2.856   5.916
 8928  LAT   Au 9468   0.408   2.856   5.712
 8929  LAT   Au 9469   0.612   3.060   5.712
 8930  LAT   Au 9470   0.408   3.060   5.916
 8931  LAT   Au 9471   0.612   2.856   5.916
 8932  LAT   Au 9472   6.528   2.856   5.712
 8933  LAT   Au 9473   6.732   3.060   5.712
 8934  LAT   Au 9474   6.732   2.856   5.916
 8935  LAT   Au 9475   6.936   2.856   5.712
 8936  LAT   Au 9476   7.140   3.060   5.712
 8937  LAT   Au 9477   6.936   3.060   5.916
 8938  LAT   Au 9478   7.140   2.856   5.916
 8939  LAT   Au 9479   0.000   3.264   5.712
 8940  LAT   Au 9480   0.204   3.468   5.712
 8941  LAT   Au 9481   0.000   3.468   5.916
 8942  LAT   Au 9482   0.204   3.264   5.916
 8943  LAT   Au 9483   0.408   3.264   5.712
 8944  LAT   Au 9484   0.408   3.468   5.916
 8945  LAT   Au 9485   0.612   3.264   5.916
 8946  LAT   Au 9486   6.732   3.468   5.712
 8947  LAT   Au 9487   6.732   3.264   5.916
 8948  LAT   Au 9488   6.936   3.264   5.712
 8949  LAT   Au 9489   7.140   3.468   5.712
 8950  LAT   Au 9490   6.936   3.468   5.916
 8951  LAT   Au 9491   7.140   3.264   5.916
 8952  LAT   Au 9492   0.000   3.672   5.712
 8953  LAT   Au 9493   0.204   3.876   5.712
 8954  LAT   Au 9494   0.000   3.876   5.916
 8955  LAT   Au 9495   0.204   3.672   5.916
 8956  LAT   Au 9496   0.408   3.672   5.712
 8957  LAT   Au 9497   0.408   3.876   5.916
 8958  LAT   Au 9498   6.732   3.876   5.712
 8959  LAT   Au 9499   6.732   3.672   5.916
 8960  LAT   Au 9500   6.936   3.672   5.712
 8961  LAT   Au 9501   7.140   3.876   5.712
 8962  LAT   Au 9502   6.936   3.876   5.916
 8963  LAT   Au 9503   7.140   3.672   5.916
 8964  LAT   Au 9504   0.000   4.080   5.712
 8965  LAT   Au 9505   0.204   4.284   5.712
 8966  LAT   Au 9506   0.000   4.284   5.916
 8967  LAT   Au 9507   0.204   4.080   5.916
 8968  LAT   Au 9508   0.408   4.080   5.712
 8969  LAT   Au 9509   0.612   4.284   5.712
 8970  LAT   Au 9510   0.408   4.284   5.916
 8971  LAT   Au 9511   0.612   4.080   5.916
 8972  LAT   Au 9512   6.732   4.284   5.712
 8973  LAT   Au 9513   6.528   4.284   5.916
 8974  LAT   Au 9514   6.732   4.080   5.916
 8975  LAT   Au 9515   6.936   4.080   5.712
 8976  LAT   Au 9516   7.140   4.284   5.712
 8977  LAT   Au 9517   6.936   4.284   5.916
 8978  LAT   Au 9518   7.140   4.080   5.916
 8979  LAT   Au 9519   0.000   4.488   5.712
 8980  LAT   Au 9520   0.204   4.692   5.712
 8981  LAT   Au 9521   0.000   4.692   5.916
 8982  LAT   Au 9522   0.204   4.488   5.916
 8983  LAT   Au 9523   0.408   4.488   5.712
 8984  LAT   Au 9524   0.612   4.692   5.712
 8985  LAT   Au 9525   0.408   4.692   5.916
 8986  LAT   Au 9526   0.612   4.488   5.916
 8987  LAT   Au 9527   6.528   4.488   5.712
 8988  LAT   Au 9528   6.732   4.692   5.712
 8989  LAT   Au 9529   6.528   4.692   5.916
 8990  LAT   Au 9530   6.732   4.488   5.916
 8991  LAT   Au 9531   6.936   4.488   5.712
 8992  LAT   Au 9532   7.140   4.692   5.712
 8993  LAT   Au 9533   6.936   4.692   5.916
 8994  LAT   Au 9534   7.140   4.488   5.916
 8995  LAT   Au 9535   0.000   4.896   5.712
 8996  LAT   Au 9536   0.204   5.100   5.712
 8997  LAT   Au 9537   0.000   5.100   5.916
 8998  LAT   Au 9538   0.204   4.896   5.916
 8999  LAT   Au 9539   0.408   4.896   5.712
 9000  LAT   Au 9540   0.612   5.100   5.712
 9001  LAT   Au 9541   0.408   5.100   5.916
 9002  LAT   Au 9542   0.612   4.896   5.916
 9003  LAT   Au 9543   0.816   4.896   5.712
 9004  LAT   Au 9544   0.816   5.100   5.916
 9005  LAT   Au 9545   6.324   5.100   5.712
 9006  LAT   Au 9546   6.324   4.896   5.916
 9007  LAT   Au 9547   6.528   4.896   5.712
 9008  LAT   Au 9548   6.732   5.100   5.712
 9009  LAT   Au 9549   6.528   5.100   5.916
 9010  LAT   Au 9550   6.732   4.896   5.916
 9011  LAT   Au 9551   6.936   4.896   5.712
 9012  LAT   Au 9552   7.140   5.100   5.712
 9013  LAT   Au 9553   6.936   5.100   5.916
 9014  LAT   Au 9554   7.140   4.896   5.916
 9015  LAT   Au 9555   0.000   5.304   5.712
 9016  LAT   Au 9556   0.204   5.508   5.712
 9017  LAT   Au 9557   0.000   5.508   5.916
 9018  LAT   Au 9558   0.204   5.304   5.916
 9019  LAT   Au 9559   0.408   5.304   5.712
 9020  LAT   Au 9560   0.612   5.508   5.712
 9021  LAT   Au 9561   0.408   5.508   5.916
 9022  LAT   Au 9562   0.612   5.304   5.916
 9023  LAT   Au 9563   0.816   5.304   5.712
 9024  LAT   Au 9564   1.020   5.508   5.712
 9025  LAT   Au 9565   0.816   5.508   5.916
 9026  LAT   Au 9566   1.020   5.304   5.916
 9027  LAT   Au 9567   1.224   5.508   5.916
 9028  LAT   Au 9568   5.916   5.508   5.712
 9029  LAT   Au 9569   6.120   5.304   5.712
 9030  LAT   Au 9570   6.324   5.508   5.712
 9031  LAT   Au 9571   6.120   5.508   5.916
 9032  LAT   Au 9572   6.324   5.304   5.916
 9033  LAT   Au 9573   6.528   5.304   5.712
 9034  LAT   Au 9574   6.732   5.508   5.712
 9035  LAT   Au 9575   6.528   5.508   5.916
 9036  LAT   Au 9576   6.732   5.304   5.916
 9037  LAT   Au 9577   6.936   5.304   5.712
 9038  LAT   Au 9578   7.140   5.508   5.712
 9039  LAT   Au 9579   6.936   5.508   5.916
 9040  LAT   Au 9580   7.140   5.304   5.916
 9041  LAT   Au 9581   0.000   5.712   5.712
 9042  LAT   Au 9582   0.204   5.916   5.712
 9043  LAT   Au 9583   0.000   5.916   5.916
 9044  LAT   Au 9584   0.204   5.712   5.916
 9045  LAT   Au 9585   0.408   5.712   5.712
 9046  LAT   Au 9586   0.612   5.916   5.712
 9047  LAT   Au 9587   0.408   5.916   5.916
 9048  LAT   Au 9588   0.612   5.712   5.916
 9049  LAT   Au 9589   0.816   5.712   5.712
 9050  LAT   Au 9590   1.020   5.916   5.712
 9051  LAT   Au 9591   0.816   5.916   5.916
 9052  LAT   Au 9592   1.020   5.712   5.916
 9053  LAT   Au 9593   1.224   5.712   5.712
 9054  LAT   Au 9594   1.428   5.916   5.712
 9055  LAT   Au 9595   1.224   5.916   5.916
 9056  LAT   Au 9596   1.428   5.712   5.916
 9057  LAT   Au 9597   1.632   5.916   5.916
 9058  LAT   Au 9598   5.508   5.916   5.712
 9059  LAT   Au 9599   5.916   5.916   5.712
 9060  LAT   Au 9600   5.712   5.916   5.916
 9061  LAT   Au 9601   5.916   5.712   5.916
 9062  LAT   Au 9602   6.120   5.712   5.712
 9063  LAT   Au 9603   6.324   5.916   5.712
 9064  LAT   Au 9604   6.120   5.916   5.916
 9065  LAT   Au 9605   6.324   5.712   5.916
 9066  LAT   Au 9606   6.528   5.712   5.712
 9067  LAT   Au 9607   6.732   5.916   5.712
 9068  LAT   Au 9608   6.528   5.916   5.916
 9069  LAT   Au 9609   6.732   5.712   5.916
 9070  LAT   Au 9610   6.936   5.712   5.712
 9071  LAT   Au 9611   7.140   5.916   5.712
 9072  LAT   Au 9612   6.936   5.916   5.916
 9073  LAT   Au 9613   7.140   5.712   5.916
 9074  LAT   Au 9614   0.000   6.120   5.712
 9075  LAT   Au 9615   0.204   6.324   5.712
 9076  LAT   Au 9616   0.000   6.324   5.916
 9077  LAT   Au 9617   0.204   6.120   5.916
 9078  LAT   Au 9618   0.408   6.120   5.712
 9079  LAT   Au 9619   0.612   6.324   5.712
 9080  LAT   Au 9620   0.408   6.324   5.916
 9081  LAT   Au 9621   0.612   6.120   5.916
 9082  LAT   Au 9622   0.816   6.120   5.712
 9083  LAT   Au 9623   1.020   6.324   5.712
 9084  LAT   Au 9624   0.816   6.324   5.916
 9085  LAT   Au 9625   1.020   6.120   5.916
 9086  LAT   Au 9626   1.224   6.120   5.712
 9087  LAT   Au 9627   1.428   6.324   5.712
 9088  LAT   Au 9628   1.224   6.324   5.916
 9089  LAT   Au 9629   1.428   6.120   5.916
 9090  LAT   Au 9630   1.632   6.120   5.712
 9091  LAT   Au 9631   1.836   6.324   5.712
 9092  LAT   Au 9632   1.632   6.324   5.916
 9093  LAT   Au 9633   1.836   6.120   5.916
 9094  LAT   Au 9634   2.244   6.324   5.712
 9095  LAT   Au 9635   2.040   6.324   5.916
 9096  LAT   Au 9636   5.100   6.324   5.712
 9097  LAT   Au 9637   4.896   6.324   5.916
 9098  LAT   Au 9638   5.304   6.120   5.712
 9099  LAT   Au 9639   5.508   6.324   5.712
 9100  LAT   Au 9640   5.304   6.324   5.916
 9101  LAT   Au 9641   5.508   6.120   5.916
 9102  LAT   Au 9642   5.712   6.120   5.712
 9103  LAT   Au 9643   5.916   6.324   5.712
 9104  LAT   Au 9644   5.712   6.324   5.916
 9105  LAT   Au 9645   5.916   6.120   5.916
 9106  LAT   Au 9646   6.120   6.120   5.712
 9107  LAT   Au 9647   6.324   6.324   5.712
 9108  LAT   Au 9648   6.120   6.324   5.916
 9109  LAT   Au 9649   6.324   6.120   5.916
 9110  LAT   Au 9650   6.528   6.120   5.712
 9111  LAT   Au 9651   6.732   6.324   5.712
 9112  LAT   Au 9652   6.528   6.324   5.916
 9113  LAT   Au 9653   6.732   6.120   5.916
 9114  LAT   Au 9654   6.936   6.120   5.712
 9115  LAT   Au 9655   7.140   6.324   5.712
 9116  LAT   Au 9656   6.936   6.324   5.916
 9117  LAT   Au 9657   7.140   6.120   5.916
 9118  LAT   Au 9658   0.000   6.528   5.712
 9119  LAT   Au 9659   0.204   6.732   5.712
 9120  LAT   Au 9660   0.000   6.732   5.916
 9121  LAT   Au 9661   0.204   6.528   5.916
 9122  LAT   Au 9662   0.408   6.528   5.712
 9123  LAT   Au 9663   0.612   6.732   5.712
 9124  LAT   Au 9664   0.408   6.732   5.916
 9125  LAT   Au 9665   0.612   6.528   5.916
 9126  LAT   Au 9666   0.816   6.528   5.712
 9127  LAT   Au 9667   1.020   6.732   5.712
 9128  LAT   Au 9668   0.816   6.732   5.916
 9129  LAT   Au 9669   1.020   6.528   5.916
 9130  LAT   Au 9670   1.224   6.528   5.712
 9131  LAT   Au 9671   1.428   6.732   5.712
 9132  LAT   Au 9672   1.224   6.732   5.916
 9133  LAT   Au 9673   1.428   6.528   5.916
 9134  LAT   Au 9674   1.632   6.528   5.712
 9135  LAT   Au 9675   1.836   6.732   5.712
 9136  LAT   Au 9676   1.632   6.732   5.916
 9137  LAT   Au 9677   1.836   6.528   5.916
 9138  LAT   Au 9678   2.040   6.528   5.712
 9139  LAT   Au 9679   2.244   6.732   5.712
 9140  LAT   Au 9680   2.040   6.732   5.916
 9141  LAT   Au 9681   2.244   6.528   5.916
 9142  LAT   Au 9682   2.448   6.528   5.712
 9143  LAT   Au 9683   2.652   6.732   5.712
 9144  LAT   Au 9684   2.448   6.732   5.916
 9145  LAT   Au 9685   2.652   6.528   5.916
 9146  LAT   Au 9686   2.856   6.528   5.712
 9147  LAT   Au 9687   3.060   6.732   5.712
 9148  LAT   Au 9688   2.856   6.732   5.916
 9149  LAT   Au 9689   3.468   6.732   5.712
 9150  LAT   Au 9690   3.264   6.732   5.916
 9151  LAT   Au 9691   3.876   6.732   5.712
 9152  LAT   Au 9692   3.672   6.732   5.916
 9153  LAT   Au 9693   4.284   6.732   5.712
 9154  LAT   Au 9694   4.080   6.732   5.916
 9155  LAT   Au 9695   4.284   6.528   5.916
 9156  LAT   Au 9696   4.488   6.528   5.712
 9157  LAT   Au 9697   4.692   6.732   5.712
 9158  LAT   Au 9698   4.488   6.732   5.916
 9159  LAT   Au 9699   4.692   6.528   5.916
 9160  LAT   Au 9700   4.896   6.528   5.712
 9161  LAT   Au 9701   5.100   6.732   5.712
 9162  LAT   Au 9702   4.896   6.732   5.916
 9163  LAT   Au 9703   5.100   6.528   5.916
 9164  LAT   Au 9704   5.304   6.528   5.712
 9165  LAT   Au 9705   5.508   6.732   5.712
 9166  LAT   Au 9706   5.304   6.732   5.916
 9167  LAT   Au 9707   5.508   6.528   5.916
 9168  LAT   Au 9708   5.712   6.528   5.712
 9169  LAT   Au 9709   5.916   6.732   5.712
 9170  LAT   Au 9710   5.712   6.732   5.916
 9171  LAT   Au 9711   5.916   6.528   5.916
 9172  LAT   Au 9712   6.120   6.528   5.712
 9173  LAT   Au 9713   6.324   6.732   5.712
 9174  LAT   Au 9714   6.120   6.732   5.916
 9175  LAT   Au 9715   6.324   6.528   5.916
 9176  LAT   Au 9716   6.528   6.528   5.712
 9177  LAT   Au 9717   6.732   6.732   5.712
 9178  LAT   Au 9718   6.528   6.732   5.916
 9179  LAT   Au 9719   6.732   6.528   5.916
 9180  LAT   Au 9720   6.936   6.528   5.712
 9181  LAT   Au 9721   7.140   6.732   5.712
 9182  LAT   Au 9722   6.936   6.732   5.916
 9183  LAT   Au 9723   7.140   6.528   5.916
 9184  LAT   Au 9724   0.000   6.936   5.712
 9185  LAT   Au 9725   0.204   7.140   5.712
 9186  LAT   Au 9726   0.000   7.140   5.916
 9187  LAT   Au 9727   0.204   6.936   5.916
 9188  LAT   Au 9728   0.408   6.936   5.712
 9189  LAT   Au 9729   0.612   7.140   5.712
 9190  LAT   Au 9730   0.408   7.140   5.916
 9191  LAT   Au 9731   0.612   6.936   5.916
 9192  LAT   Au 9732   0.816   6.936   5.712
 9193  LAT   Au 9733   1.020   7.140   5.712
 9194  LAT   Au 9734   0.816   7.140   5.916
 9195  LAT   Au 9735   1.020   6.936   5.916
 9196  LAT   Au 9736   1.224   6.936   5.712
 9197  LAT   Au 9737   1.428   7.140   5.712
 9198  LAT   Au 9738   1.224   7.140   5.916
 9199  LAT   Au 9739   1.428   6.936   5.916
 9200  LAT   Au 9740   1.632   6.936   5.712
 9201  LAT   Au 9741   1.836   7.140   5.712
 9202  LAT   Au 9742   1.632   7.140   5.916
 9203  LAT   Au 9743   1.836   6.936   5.916
 9204  LAT   Au 9744   2.040   6.936   5.712
 9205  LAT   Au 9745   2.244   7.140   5.712
 9206  LAT   Au 9746   2.040   7.140   5.916
 9207  LAT   Au 9747   2.244   6.936   5.916
 9208  LAT   Au 9748   2.448   6.936   5.712
 9209  LAT   Au 9749   2.652   7.140   5.712
 9210  LAT   Au 9750   2.448   7.140   5.916
 9211  LAT   Au 9751   2.652   6.936   5.916
 9212  LAT   Au 9752   2.856   6.936   5.712
 9213  LAT   Au 9753   3.060   7.140   5.712
 9214  LAT   Au 9754   2.856   7.140   5.916
 9215  LAT   Au 9755   3.060   6.936   5.916
 9216  LAT   Au 9756   3.264   6.936   5.712
 9217  LAT   Au 9757   3.468   7.140   5.712
 9218  LAT   Au 9758   3.264   7.140   5.916
 9219  LAT   Au 9759   3.468   6.936   5.916
 9220  LAT   Au 9760   3.672   6.936   5.712
 9221  LAT   Au 9761   3.876   7.140   5.712
 9222  LAT   Au 9762   3.672   7.140   5.916
 9223  LAT   Au 9763   3.876   6.936   5.916
 9224  LAT   Au 9764   4.080   6.936   5.712
 9225  LAT   Au 9765   4.284   7.140   5.712
 9226  LAT   Au 9766   4.080   7.140   5.916
 9227  LAT   Au 9767   4.284   6.936   5.916
 9228  LAT   Au 9768   4.488   6.936   5.712
 9229  LAT   Au 9769   4.692   7.140   5.712
 9230  LAT   Au 9770   4.488   7.140   5.916
 9231  LAT   Au 9771   4.692   6.936   5.916
 9232  LAT   Au 9772   4.896   6.936   5.712
 9233  LAT   Au 9773   5.100   7.140   5.712
 9234  LAT   Au 9774   4.896   7.140   5.916
 9235  LAT   Au 9775   5.100   6.936   5.916
 9236  LAT   Au 9776   5.304   6.936   5.712
 9237  LAT   Au 9777   5.508   7.140   5.712
 9238  LAT   Au 9778   5.304   7.140   5.916
 9239  LAT   Au 9779   5.508   6.936   5.916
 9240  LAT   Au 9780   5.712   6.936   5.712
 9241  LAT   Au 9781   5.916   7.140   5.712
 9242  LAT   Au 9782   5.712   7.140   5.916
 9243  LAT   Au 9783   5.916   6.936   5.916
 9244  LAT   Au 9784   6.120   6.936   5.712
 9245  LAT   Au 9785   6.324   7.140   5.712
 9246  LAT   Au 9786   6.120   7.140   5.916
 9247  LAT   Au 9787   6.324   6.936   5.916
 9248  LAT   Au 9788   6.528   6.936   5.712
 9249  LAT   Au 9789   6.732   7.140   5.712
 9250  LAT   Au 9790   6.528   7.140   5.916
 9251  LAT   Au 9791   6.732   6.936   5.916
 9252  LAT   Au 9792   6.936   6.936   5.712
 9253  LAT   Au 9793   7.140   7.140   5.712
 9254  LAT   Au 9794   6.936   7.140   5.916
 9255  LAT   Au 9795   7.140   6.936   5.916
 9256  LAT   Au 9796   0.000   0.000   6.120
 9257  LAT   Au 9797   0.204   0.204   6.120
 9258  LAT   Au 9798   0.000   0.204   6.324
 9259  LAT   Au 9799   0.204   0.000   6.324
 9260  LAT   Au 9800   0.408   0.000   6.120
 9261  LAT   Au 9801   0.612   0.204   6.120
 9262  LAT   Au 9802   0.408   0.204   6.324
 9263  LAT   Au 9803   0.612   0.000   6.324
 9264  LAT   Au 9804   0.816   0.000   6.120
 9265  LAT   Au 9805   1.020   0.204   6.120
 9266  LAT   Au 9806   0.816   0.204   6.324
 9267  LAT   Au 9807   1.020   0.000   6.324
 9268  LAT   Au 9808   1.224   0.000   6.120
 9269  LAT   Au 9809   1.428   0.204   6.120
 9270  LAT   Au 9810   1.224   0.204   6.324
 9271  LAT   Au 9811   1.428   0.000   6.324
 9272  LAT   Au 9812   1.632   0.000   6.120
 9273  LAT   Au 9813   1.836   0.204   6.120
 9274  LAT   Au 9814   1.632   0.204   6.324
 9275  LAT   Au 9815   1.836   0.000   6.324
 9276  LAT   Au 9816   2.040   0.000   6.120
 9277  LAT   Au 9817   2.244   0.204   6.120
 9278  LAT   Au 9818   2.040   0.204   6.324
 9279  LAT   Au 9819   2.244   0.000   6.324
 9280  LAT   Au 9820   2.448   0.000   6.120
 9281  LAT   Au 9821   2.652   0.204   6.120
 9282  LAT   Au 9822   2.448   0.204   6.324
 9283  LAT   Au 9823   2.652   0.000   6.324
 9284  LAT   Au 9824   2.856   0.000   6.120
 9285  LAT   Au 9825   3.060   0.204   6.120
 9286  LAT   Au 9826   2.856   0.204   6.324
 9287  LAT   Au 9827   3.060   0.000   6.324
 9288  LAT   Au 9828   3.264   0.000   6.120
 9289  LAT   Au 9829   3.468   0.204   6.120
 9290  LAT   Au 9830   3.264   0.204   6.324
 9291  LAT   Au 9831   3.468   0.000   6.324
 9292  LAT   Au 9832   3.672   0.000   6.120
 9293  LAT   Au 9833   3.876   0.204   6.120
 9294  LAT   Au 9834   3.672   0.204   6.324
 9295  LAT   Au 9835   3.876   0.000   6.324
 9296  LAT   Au 9836   4.080   0.000   6.120
 9297  LAT   Au 9837   4.284   0.204   6.120
 9298  LAT   Au 9838   4.080   0.204   6.324
 9299  LAT   Au 9839   4.284   0.000   6.324
 9300  LAT   Au 9840   4.488   0.000   6.120
 9301  LAT   Au 9841   4.692   0.204   6.120
 9302  LAT   Au 9842   4.488   0.204   6.324
 9303  LAT   Au 9843   4.692   0.000   6.324
 9304  LAT   Au 9844   4.896   0.000   6.120
 9305  LAT   Au 9845   5.100   0.204   6.120
 9306  LAT   Au 9846   4.896   0.204   6.324
 9307  LAT   Au 9847   5.100   0.000   6.324
 9308  LAT   Au 9848   5.304   0.000   6.120
 9309  LAT   Au 9849   5.508   0.204   6.120
 9310  LAT   Au 9850   5.304   0.204   6.324
 9311  LAT   Au 9851   5.508   0.000   6.324
 9312  LAT   Au 9852   5.712   0.000   6.120
 9313  LAT   Au 9853   5.916   0.204   6.120
 9314  LAT   Au 9854   5.712   0.204   6.324
 9315  LAT   Au 9855   5.916   0.000   6.324
 9316  LAT   Au 9856   6.120   0.000   6.120
 9317  LAT   Au 9857   6.324   0.204   6.120
 9318  LAT   Au 9858   6.120   0.204   6.324
 9319  LAT   Au 9859   6.324   0.000   6.324
 9320  LAT   Au 9860   6.528   0.000   6.120
 9321  LAT   Au 9861   6.732   0.204   6.120
 9322  LAT   Au 9862   6.528   0.204   6.324
 9323  LAT   Au 9863   6.732   0.000   6.324
 9324  LAT   Au 9864   6.936   0.000   6.120
 9325  LAT   Au 9865   7.140   0.204   6.120
 9326  LAT   Au 9866   6.936   0.204   6.324
 9327  LAT   Au 9867   7.140   0.000   6.324
 9328  LAT   Au 9868   0.000   0.408   6.120
 9329  LAT   Au 9869   0.204   0.612   6.120
 9330  LAT   Au 9870   0.000   0.612   6.324
 9331  LAT   Au 9871   0.204   0.408   6.324
 9332  LAT   Au 9872   0.408   0.408   6.120
 9333  LAT   Au 9873   0.612   0.612   6.120
 9334  LAT   Au 9874   0.408   0.612   6.324
 9335  LAT   Au 9875   0.612   0.408   6.324
 9336  LAT   Au 9876   0.816   0.408   6.120
 9337  LAT   Au 9877   1.020   0.612   6.120
 9338  LAT   Au 9878   0.816   0.612   6.324
 9339  LAT   Au 9879   1.020   0.408   6.324
 9340  LAT   Au 9880   1.224   0.408   6.120
 9341  LAT   Au 9881   1.428   0.612   6.120
 9342  LAT   Au 9882   1.224   0.612   6.324
 9343  LAT   Au 9883   1.428   0.408   6.324
 9344  LAT   Au 9884   1.632   0.408   6.120
 9345  LAT   Au 9885   1.836   0.612   6.120
 9346  LAT   Au 9886   1.632   0.612   6.324
 9347  LAT   Au 9887   1.836   0.408   6.324
 9348  LAT   Au 9888   2.040   0.408   6.120
 9349  LAT   Au 9889   2.244   0.612   6.120
 9350  LAT   Au 9890   2.040   0.612   6.324
 9351  LAT   Au 9891   2.244   0.408   6.324
 9352  LAT   Au 9892   2.448   0.408   6.120
 9353  LAT   Au 9893   2.652   0.612   6.120
 9354  LAT   Au 9894   2.448   0.612   6.324
 9355  LAT   Au 9895   2.652   0.408   6.324
 9356  LAT   Au 9896   2.856   0.408   6.120
 9357  LAT   Au 9897   3.060   0.612   6.120
 9358  LAT   Au 9898   2.856   0.612   6.324
 9359  LAT   Au 9899   3.060   0.408   6.324
 9360  LAT   Au 9900   3.264   0.408   6.120
 9361  LAT   Au 9901   3.264   0.612   6.324
 9362  LAT   Au 9902   3.468   0.408   6.324
 9363  LAT   Au 9903   3.672   0.408   6.120
 9364  LAT   Au 9904   3.876   0.408   6.324
 9365  LAT   Au 9905   4.080   0.408   6.120
 9366  LAT   Au 9906   4.284   0.612   6.120
 9367  LAT   Au 9907   4.080   0.612   6.324
 9368  LAT   Au 9908   4.284   0.408   6.324
 9369  LAT   Au 9909   4.488   0.408   6.120
 9370  LAT   Au 9910   4.692   0.612   6.120
 9371  LAT   Au 9911   4.488   0.612   6.324
 9372  LAT   Au 9912   4.692   0.408   6.324
 9373  LAT   Au 9913   4.896   0.408   6.120
 9374  LAT   Au 9914   5.100   0.612   6.120
 9375  LAT   Au 9915   4.896   0.612   6.324
 9376  LAT   Au 9916   5.100   0.408   6.324
 9377  LAT   Au 9917   5.304   0.408   6.120
 9378  LAT   Au 9918   5.508   0.612   6.120
 9379  LAT   Au 9919   5.304   0.612   6.324
 9380  LAT   Au 9920   5.508   0.408   6.324
 9381  LAT   Au 9921   5.712   0.408   6.120
 9382  LAT   Au 9922   5.916   0.612   6.120
 9383  LAT   Au 9923   5.712   0.612   6.324
 9384  LAT   Au 9924   5.916   0.408   6.324
 9385  LAT   Au 9925   6.120   0.408   6.120
 9386  LAT   Au 9926   6.324   0.612   6.120
 9387  LAT   Au 9927   6.120   0.612   6.324
 9388  LAT   Au 9928   6.324   0.408   6.324
 9389  LAT   Au 9929   6.528   0.408   6.120
 9390  LAT   Au 9930   6.732   0.612   6.120
 9391  LAT   Au 9931   6.528   0.612   6.324
 9392  LAT   Au 9932   6.732   0.408   6.324
 9393  LAT   Au 9933   6.936   0.408   6.120
 9394  LAT   Au 9934   7.140   0.612   6.120
 9395  LAT   Au 9935   6.936   0.612   6.324
 9396  LAT   Au 9936   7.140   0.408   6.324
 9397  LAT   Au 9937   0.000   0.816   6.120
 9398  LAT   Au 9938   0.204   1.020   6.120
 9399  LAT   Au 9939   0.000   1.020   6.324
 9400  LAT   Au 9940   0.204   0.816   6.324
 9401  LAT   Au 9941   0.408   0.816   6.120
 9402  LAT   Au 9942   0.612   1.020   6.120
 9403  LAT   Au 9943   0.408   1.020   6.324
 9404  LAT   Au 9944   0.612   0.816   6.324
 9405  LAT   Au 9945   0.816   0.816   6.120
 9406  LAT   Au 9946   1.020   1.020   6.120
 9407  LAT   Au 9947   0.816   1.020   6.324
 9408  LAT   Au 9948   1.020   0.816   6.324
 9409  LAT   Au 9949   1.224   0.816   6.120
 9410  LAT   Au 9950   1.428   1.020   6.120
 9411  LAT   Au 9951   1.224   1.020   6.324
 9412  LAT   Au 9952   1.428   0.816   6.324
 9413  LAT   Au 9953   1.632   0.816   6.120
 9414  LAT   Au 9954   1.836   1.020   6.120
 9415  LAT   Au 9955   1.632   1.020   6.324
 9416  LAT   Au 9956   1.836   0.816   6.324
 9417  LAT   Au 9957   2.040   0.816   6.120
 9418  LAT   Au 9958   2.040   1.020   6.324
 9419  LAT   Au 9959   2.244   0.816   6.324
 9420  LAT   Au 9960   2.448   0.816   6.120
 9421  LAT   Au 9961   4.896   0.816   6.120
 9422  LAT   Au 9962   5.100   0.816   6.324
 9423  LAT   Au 9963   5.304   0.816   6.120
 9424  LAT   Au 9964   5.508   1.020   6.120
 9425  LAT   Au 9965   5.304   1.020   6.324
 9426  LAT   Au 9966   5.508   0.816   6.324
 9427  LAT   Au 9967   5.712   0.816   6.120
 9428  LAT   Au 9968   5.916   1.020   6.120
 9429  LAT   Au 9969   5.712   1.020   6.324
 9430  LAT   Au 9970   5.916   0.816   6.324
 9431  LAT   Au 9971   6.120   0.816   6.120
 9432  LAT   Au 9972   6.324   1.020   6.120
 9433  LAT   Au 9973   6.120   1.020   6.324
 9434  LAT   Au 9974   6.324   0.816   6.324
 9435  LAT   Au 9975   6.528   0.816   6.120
 9436  LAT   Au 9976   6.732   1.020   6.120
 9437  LAT   Au 9977   6.528   1.020   6.324
 9438  LAT   Au 9978   6.732   0.816   6.324
 9439  LAT   Au 9979   6.936   0.816   6.120
 9440  LAT   Au 9980   7.140   1.020   6.120
 9441  LAT   Au 9981   6.936   1.020   6.324
 9442  LAT   Au 9982   7.140   0.816   6.324
 9443  LAT   Au 9983   0.000   1.224   6.120
 9444  LAT   Au 9984   0.204   1.428   6.120
 9445  LAT   Au 9985   0.000   1.428   6.324
 9446  LAT   Au 9986   0.204   1.224   6.324
 9447  LAT   Au 9987   0.408   1.224   6.120
 9448  LAT   Au 9988   0.612   1.428   6.120
 9449  LAT   Au 9989   0.408   1.428   6.324
 9450  LAT   Au 9990   0.612   1.224   6.324
 9451  LAT   Au 9991   0.816   1.224   6.120
 9452  LAT   Au 9992   1.020   1.428   6.120
 9453  LAT   Au 9993   0.816   1.428   6.324
 9454  LAT   Au 9994   1.020   1.224   6.324
 9455  LAT   Au 9995   1.224   1.224   6.120
 9456  LAT   Au 9996   1.428   1.428   6.120
 9457  LAT   Au 9997   1.224   1.428   6.324
 9458  LAT   Au 9998   1.428   1.224   6.324
 9459  LAT   Au 9999   1.632   1.224   6.120
 9460  LAT   Au10000   5.508   1.224   6.324
 9461  LAT   Au10001   5.712   1.224   6.120
 9462  LAT   Au10002   5.916   1.428   6.120
 9463  LAT   Au10003   5.712   1.428   6.324
 9464  LAT   Au10004   5.916   1.224   6.324
 9465  LAT   Au10005   6.120   1.224   6.120
 9466  LAT   Au10006   6.324   1.428   6.120
 9467  LAT   Au10007   6.120   1.428   6.324
 9468  LAT   Au10008   6.324   1.224   6.324
 9469  LAT   Au10009   6.528   1.224   6.120
 9470  LAT   Au10010   6.732   1.428   6.120
 9471  LAT   Au10011   6.528   1.428   6.324
 9472  LAT   Au10012   6.732   1.224   6.324
 9473  LAT   Au10013   6.936   1.224   6.120
 9474  LAT   Au10014   7.140   1.428   6.120
 9475  LAT   Au10015   6.936   1.428   6.324
 9476  LAT   Au10016   7.140   1.224   6.324
 9477  LAT   Au10017   0.000   1.632   6.120
 9478  LAT   Au10018   0.204   1.836   6.120
 9479  LAT   Au10019   0.000   1.836   6.324
 9480  LAT   Au10020   0.204   1.632   6.324
 9481  LAT   Au10021   0.408   1.632   6.120
 9482  LAT   Au10022   0.612   1.836   6.120
 9483  LAT   Au10023   0.408   1.836   6.324
 9484  LAT   Au10024   0.612   1.632   6.324
 9485  LAT   Au10025   0.816   1.632   6.120
 9486  LAT   Au10026   1.020   1.836   6.120
 9487  LAT   Au10027   0.816   1.836   6.324
 9488  LAT   Au10028   1.020   1.632   6.324
 9489  LAT   Au10029   1.224   1.632   6.120
 9490  LAT   Au10030   5.916   1.632   6.324
 9491  LAT   Au10031   6.120   1.632   6.120
 9492  LAT   Au10032   6.324   1.836   6.120
 9493  LAT   Au10033   6.120   1.836   6.324
 9494  LAT   Au10034   6.324   1.632   6.324
 9495  LAT   Au10035   6.528   1.632   6.120
 9496  LAT   Au10036   6.732   1.836   6.120
 9497  LAT   Au10037   6.528   1.836   6.324
 9498  LAT   Au10038   6.732   1.632   6.324
 9499  LAT   Au10039   6.936   1.632   6.120
 9500  LAT   Au10040   7.140   1.836   6.120
 9501  LAT   Au10041   6.936   1.836   6.324
 9502  LAT   Au10042   7.140   1.632   6.324
 9503  LAT   Au10043   0.000   2.040   6.120
 9504  LAT   Au10044   0.204   2.244   6.120
 9505  LAT   Au10045   0.000   2.244   6.324
 9506  LAT   Au10046   0.204   2.040   6.324
 9507  LAT   Au10047   0.408   2.040   6.120
 9508  LAT   Au10048   0.612   2.244   6.120
 9509  LAT   Au10049   0.408   2.244   6.324
 9510  LAT   Au10050   0.612   2.040   6.324
 9511  LAT   Au10051   0.816   2.040   6.120
 9512  LAT   Au10052   0.816   2.244   6.324
 9513  LAT   Au10053   1.020   2.040   6.324
 9514  LAT   Au10054   6.324   2.244   6.120
 9515  LAT   Au10055   6.324   2.040   6.324
 9516  LAT   Au10056   6.528   2.040   6.120
 9517  LAT   Au10057   6.732   2.244   6.120
 9518  LAT   Au10058   6.528   2.244   6.324
 9519  LAT   Au10059   6.732   2.040   6.324
 9520  LAT   Au10060   6.936   2.040   6.120
 9521  LAT   Au10061   7.140   2.244   6.120
 9522  LAT   Au10062   6.936   2.244   6.324
 9523  LAT   Au10063   7.140   2.040   6.324
 9524  LAT   Au10064   0.000   2.448   6.120
 9525  LAT   Au10065   0.204   2.652   6.120
 9526  LAT   Au10066   0.000   2.652   6.324
 9527  LAT   Au10067   0.204   2.448   6.324
 9528  LAT   Au10068   0.408   2.448   6.120
 9529  LAT   Au10069   0.612   2.652   6.120
 9530  LAT   Au10070   0.408   2.652   6.324
 9531  LAT   Au10071   0.612   2.448   6.324
 9532  LAT   Au10072   0.816   2.448   6.120
 9533  LAT   Au10073   6.528   2.448   6.120
 9534  LAT   Au10074   6.732   2.652   6.120
 9535  LAT   Au10075   6.528   2.652   6.324
 9536  LAT   Au10076   6.732   2.448   6.324
 9537  LAT   Au10077   6.936   2.448   6.120
 9538  LAT   Au10078   7.140   2.652   6.120
 9539  LAT   Au10079   6.936   2.652   6.324
 9540  LAT   Au10080   7.140   2.448   6.324
 9541  LAT   Au10081   0.000   2.856   6.120
 9542  LAT   Au10082   0.204   3.060   6.120
 9543  LAT   Au10083   0.000   3.060   6.324
 9544  LAT   Au10084   0.204   2.856   6.324
 9545  LAT   Au10085   0.408   2.856   6.120
 9546  LAT   Au10086   0.612   3.060   6.120
 9547  LAT   Au10087   0.408   3.060   6.324
 9548  LAT   Au10088   0.612   2.856   6.324
 9549  LAT   Au10089   6.528   2.856   6.120
 9550  LAT   Au10090   6.732   3.060   6.120
 9551  LAT   Au10091   6.732   2.856   6.324
 9552  LAT   Au10092   6.936   2.856   6.120
 9553  LAT   Au10093   7.140   3.060   6.120
 9554  LAT   Au10094   6.936   3.060   6.324
 9555  LAT   Au10095   7.140   2.856   6.324
 9556  LAT   Au10096   0.000   3.264   6.120
 9557  LAT   Au10097   0.204   3.468   6.120
 9558  LAT   Au10098   0.000   3.468   6.324
 9559  LAT   Au10099   0.204   3.264   6.324
 9560  LAT   Au10100   0.408   3.264   6.120
 9561  LAT   Au10101   0.408   3.468   6.324
 9562  LAT   Au10102   0.612   3.264   6.324
 9563  LAT   Au10103   6.732   3.468   6.120
 9564  LAT   Au10104   6.732   3.264   6.324
 9565  LAT   Au10105   6.936   3.264   6.120
 9566  LAT   Au10106   7.140   3.468   6.120
 9567  LAT   Au10107   6.936   3.468   6.324
 9568  LAT   Au10108   7.140   3.264   6.324
 9569  LAT   Au10109   0.000   3.672   6.120
 9570  LAT   Au10110   0.204   3.876   6.120
 9571  LAT   Au10111   0.000   3.876   6.324
 9572  LAT   Au10112   0.204   3.672   6.324
 9573  LAT   Au10113   0.408   3.672   6.120
 9574  LAT   Au10114   0.408   3.876   6.324
 9575  LAT   Au10115   6.732   3.876   6.120
 9576  LAT   Au10116   6.732   3.672   6.324
 9577  LAT   Au10117   6.936   3.672   6.120
 9578  LAT   Au10118   7.140   3.876   6.120
 9579  LAT   Au10119   6.936   3.876   6.324
 9580  LAT   Au10120   7.140   3.672   6.324
 9581  LAT   Au10121   0.000   4.080   6.120
 9582  LAT   Au10122   0.204   4.284   6.120
 9583  LAT   Au10123   0.000   4.284   6.324
 9584  LAT   Au10124   0.204   4.080   6.324
 9585  LAT   Au10125   0.408   4.080   6.120
 9586  LAT   Au10126   0.612   4.284   6.120
 9587  LAT   Au10127   0.408   4.284   6.324
 9588  LAT   Au10128   0.612   4.080   6.324
 9589  LAT   Au10129   6.732   4.284   6.120
 9590  LAT   Au10130   6.528   4.284   6.324
 9591  LAT   Au10131   6.732   4.080   6.324
 9592  LAT   Au10132   6.936   4.080   6.120
 9593  LAT   Au10133   7.140   4.284   6.120
 9594  LAT   Au10134   6.936   4.284   6.324
 9595  LAT   Au10135   7.140   4.080   6.324
 9596  LAT   Au10136   0.000   4.488   6.120
 9597  LAT   Au10137   0.204   4.692   6.120
 9598  LAT   Au10138   0.000   4.692   6.324
 9599  LAT   Au10139   0.204   4.488   6.324
 9600  LAT   Au10140   0.408   4.488   6.120
 9601  LAT   Au10141   0.612   4.692   6.120
 9602  LAT   Au10142   0.408   4.692   6.324
 9603  LAT   Au10143   0.612   4.488   6.324
 9604  LAT   Au10144   6.528   4.488   6.120
 9605  LAT   Au10145   6.732   4.692   6.120
 9606  LAT   Au10146   6.528   4.692   6.324
 9607  LAT   Au10147   6.732   4.488   6.324
 9608  LAT   Au10148   6.936   4.488   6.120
 9609  LAT   Au10149   7.140   4.692   6.120
 9610  LAT   Au10150   6.936   4.692   6.324
 9611  LAT   Au10151   7.140   4.488   6.324
 9612  LAT   Au10152   0.000   4.896   6.120
 9613  LAT   Au10153   0.204   5.100   6.120
 9614  LAT   Au10154   0.000   5.100   6.324
 9615  LAT   Au10155   0.204   4.896   6.324
 9616  LAT   Au10156   0.408   4.896   6.120
 9617  LAT   Au10157   0.612   5.100   6.120
 9618  LAT   Au10158   0.408   5.100   6.324
 9619  LAT   Au10159   0.612   4.896   6.324
 9620  LAT   Au10160   0.816   4.896   6.120
 9621  LAT   Au10161   0.816   5.100   6.324
 9622  LAT   Au10162   6.324   5.100   6.120
 9623  LAT   Au10163   6.324   4.896   6.324
 9624  LAT   Au10164   6.528   4.896   6.120
 9625  LAT   Au10165   6.732   5.100   6.120
 9626  LAT   Au10166   6.528   5.100   6.324
 9627  LAT   Au10167   6.732   4.896   6.324
 9628  LAT   Au10168   6.936   4.896   6.120
 9629  LAT   Au10169   7.140   5.100   6.120
 9630  LAT   Au10170   6.936   5.100   6.324
 9631  LAT   Au10171   7.140   4.896   6.324
 9632  LAT   Au10172   0.000   5.304   6.120
 9633  LAT   Au10173   0.204   5.508   6.120
 9634  LAT   Au10174   0.000   5.508   6.324
 9635  LAT   Au10175   0.204   5.304   6.324
 9636  LAT   Au10176   0.408   5.304   6.120
 9637  LAT   Au10177   0.612   5.508   6.120
 9638  LAT   Au10178   0.408   5.508   6.324
 9639  LAT   Au10179   0.612   5.304   6.324
 9640  LAT   Au10180   0.816   5.304   6.120
 9641  LAT   Au10181   1.020   5.508   6.120
 9642  LAT   Au10182   0.816   5.508   6.324
 9643  LAT   Au10183   1.020   5.304   6.324
 9644  LAT   Au10184   1.224   5.508   6.324
 9645  LAT   Au10185   5.916   5.508   6.120
 9646  LAT   Au10186   6.120   5.304   6.120
 9647  LAT   Au10187   6.324   5.508   6.120
 9648  LAT   Au10188   6.120   5.508   6.324
 9649  LAT   Au10189   6.324   5.304   6.324
 9650  LAT   Au10190   6.528   5.304   6.120
 9651  LAT   Au10191   6.732   5.508   6.120
 9652  LAT   Au10192   6.528   5.508   6.324
 9653  LAT   Au10193   6.732   5.304   6.324
 9654  LAT   Au10194   6.936   5.304   6.120
 9655  LAT   Au10195   7.140   5.508   6.120
 9656  LAT   Au10196   6.936   5.508   6.324
 9657  LAT   Au10197   7.140   5.304   6.324
 9658  LAT   Au10198   0.000   5.712   6.120
 9659  LAT   Au10199   0.204   5.916   6.120
 9660  LAT   Au10200   0.000   5.916   6.324
 9661  LAT   Au10201   0.204   5.712   6.324
 9662  LAT   Au10202   0.408   5.712   6.120
 9663  LAT   Au10203   0.612   5.916   6.120
 9664  LAT   Au10204   0.408   5.916   6.324
 9665  LAT   Au10205   0.612   5.712   6.324
 9666  LAT   Au10206   0.816   5.712   6.120
 9667  LAT   Au10207   1.020   5.916   6.120
 9668  LAT   Au10208   0.816   5.916   6.324
 9669  LAT   Au10209   1.020   5.712   6.324
 9670  LAT   Au10210   1.224   5.712   6.120
 9671  LAT   Au10211   1.428   5.916   6.120
 9672  LAT   Au10212   1.224   5.916   6.324
 9673  LAT   Au10213   1.428   5.712   6.324
 9674  LAT   Au10214   1.632   5.916   6.324
 9675  LAT   Au10215   5.508   5.916   6.120
 9676  LAT   Au10216   5.916   5.916   6.120
 9677  LAT   Au10217   5.712   5.916   6.324
 9678  LAT   Au10218   5.916   5.712   6.324
 9679  LAT   Au10219   6.120   5.712   6.120
 9680  LAT   Au10220   6.324   5.916   6.120
 9681  LAT   Au10221   6.120   5.916   6.324
 9682  LAT   Au10222   6.324   5.712   6.324
 9683  LAT   Au10223   6.528   5.712   6.120
 9684  LAT   Au10224   6.732   5.916   6.120
 9685  LAT   Au10225   6.528   5.916   6.324
 9686  LAT   Au10226   6.732   5.712   6.324
 9687  LAT   Au10227   6.936   5.712   6.120
 9688  LAT   Au10228   7.140   5.916   6.120
 9689  LAT   Au10229   6.936   5.916   6.324
 9690  LAT   Au10230   7.140   5.712   6.324
 9691  LAT   Au10231   0.000   6.120   6.120
 9692  LAT   Au10232   0.204   6.324   6.120
 9693  LAT   Au10233   0.000   6.324   6.324
 9694  LAT   Au10234   0.204   6.120   6.324
 9695  LAT   Au10235   0.408   6.120   6.120
 9696  LAT   Au10236   0.612   6.324   6.120
 9697  LAT   Au10237   0.408   6.324   6.324
 9698  LAT   Au10238   0.612   6.120   6.324
 9699  LAT   Au10239   0.816   6.120   6.120
 9700  LAT   Au10240   1.020   6.324   6.120
 9701  LAT   Au10241   0.816   6.324   6.324
 9702  LAT   Au10242   1.020   6.120   6.324
 9703  LAT   Au10243   1.224   6.120   6.120
 9704  LAT   Au10244   1.428   6.324   6.120
 9705  LAT   Au10245   1.224   6.324   6.324
 9706  LAT   Au10246   1.428   6.120   6.324
 9707  LAT   Au10247   1.632   6.120   6.120
 9708  LAT   Au10248   1.836   6.324   6.120
 9709  LAT   Au10249   1.632   6.324   6.324
 9710  LAT   Au10250   1.836   6.120   6.324
 9711  LAT   Au10251   2.244   6.324   6.120
 9712  LAT   Au10252   2.040   6.324   6.324
 9713  LAT   Au10253   5.100   6.324   6.120
 9714  LAT   Au10254   4.896   6.324   6.324
 9715  LAT   Au10255   5.304   6.120   6.120
 9716  LAT   Au10256   5.508   6.324   6.120
 9717  LAT   Au10257   5.304   6.324   6.324
 9718  LAT   Au10258   5.508   6.120   6.324
 9719  LAT   Au10259   5.712   6.120   6.120
 9720  LAT   Au10260   5.916   6.324   6.120
 9721  LAT   Au10261   5.712   6.324   6.324
 9722  LAT   Au10262   5.916   6.120   6.324
 9723  LAT   Au10263   6.120   6.120   6.120
 9724  LAT   Au10264   6.324   6.324   6.120
 9725  LAT   Au10265   6.120   6.324   6.324
 9726  LAT   Au10266   6.324   6.120   6.324
 9727  LAT   Au10267   6.528   6.120   6.120
 9728  LAT   Au10268   6.732   6.324   6.120
 9729  LAT   Au10269   6.528   6.324   6.324
 9730  LAT   Au10270   6.732   6.120   6.324
 9731  LAT   Au10271   6.936   6.120   6.120
 9732  LAT   Au10272   7.140   6.324   6.120
 9733  LAT   Au10273   6.936   6.324   6.324
 9734  LAT   Au10274   7.140   6.120   6.324
 9735  LAT   Au10275   0.000   6.528   6.120
 9736  LAT   Au10276   0.204   6.732   6.120
 9737  LAT   Au10277   0.000   6.732   6.324
 9738  LAT   Au10278   0.204   6.528   6.324
 9739  LAT   Au10279   0.408   6.528   6.120
 9740  LAT   Au10280   0.612   6.732   6.120
 9741  LAT   Au10281   0.408   6.732   6.324
 9742  LAT   Au10282   0.612   6.528   6.324
 9743  LAT   Au10283   0.816   6.528   6.120
 9744  LAT   Au10284   1.020   6.732   6.120
 9745  LAT   Au10285   0.816   6.732   6.324
 9746  LAT   Au10286   1.020   6.528   6.324
 9747  LAT   Au10287   1.224   6.528   6.120
 9748  LAT   Au10288   1.428   6.732   6.120
 9749  LAT   Au10289   1.224   6.732   6.324
 9750  LAT   Au10290   1.428   6.528   6.324
 9751  LAT   Au10291   1.632   6.528   6.120
 9752  LAT   Au10292   1.836   6.732   6.120
 9753  LAT   Au10293   1.632   6.732   6.324
 9754  LAT   Au10294   1.836   6.528   6.324
 9755  LAT   Au10295   2.040   6.528   6.120
 9756  LAT   Au10296   2.244   6.732   6.120
 9757  LAT   Au10297   2.040   6.732   6.324
 9758  LAT   Au10298   2.244   6.528   6.324
 9759  LAT   Au10299   2.448   6.528   6.120
 9760  LAT   Au10300   2.652   6.732   6.120
 9761  LAT   Au10301   2.448   6.732   6.324
 9762  LAT   Au10302   2.652   6.528   6.324
 9763  LAT   Au10303   2.856   6.528   6.120
 9764  LAT   Au10304   3.060   6.732   6.120
 9765  LAT   Au10305   2.856   6.732   6.324
 9766  LAT   Au10306   3.468   6.732   6.120
 9767  LAT   Au10307   3.264   6.732   6.324
 9768  LAT   Au10308   3.876   6.732   6.120
 9769  LAT   Au10309   3.672   6.732   6.324
 9770  LAT   Au10310   4.284   6.732   6.120
 9771  LAT   Au10311   4.080   6.732   6.324
 9772  LAT   Au10312   4.284   6.528   6.324
 9773  LAT   Au10313   4.488   6.528   6.120
 9774  LAT   Au10314   4.692   6.732   6.120
 9775  LAT   Au10315   4.488   6.732   6.324
 9776  LAT   Au10316   4.692   6.528   6.324
 9777  LAT   Au10317   4.896   6.528   6.120
 9778  LAT   Au10318   5.100   6.732   6.120
 9779  LAT   Au10319   4.896   6.732   6.324
 9780  LAT   Au10320   5.100   6.528   6.324
 9781  LAT   Au10321   5.304   6.528   6.120
 9782  LAT   Au10322   5.508   6.732   6.120
 9783  LAT   Au10323   5.304   6.732   6.324
 9784  LAT   Au10324   5.508   6.528   6.324
 9785  LAT   Au10325   5.712   6.528   6.120
 9786  LAT   Au10326   5.916   6.732   6.120
 9787  LAT   Au10327   5.712   6.732   6.324
 9788  LAT   Au10328   5.916   6.528   6.324
 9789  LAT   Au10329   6.120   6.528   6.120
 9790  LAT   Au10330   6.324   6.732   6.120
 9791  LAT   Au10331   6.120   6.732   6.324
 9792  LAT   Au10332   6.324   6.528   6.324
 9793  LAT   Au10333   6.528   6.528   6.120
 9794  LAT   Au10334   6.732   6.732   6.120
 9795  LAT   Au10335   6.528   6.732   6.324
 9796  LAT   Au10336   6.732   6.528   6.324
 9797  LAT   Au10337   6.936   6.528   6.120
 9798  LAT   Au10338   7.140   6.732   6.120
 9799  LAT   Au10339   6.936   6.732   6.324
 9800  LAT   Au10340   7.140   6.528   6.324
 9801  LAT   Au10341   0.000   6.936   6.120
 9802  LAT   Au10342   0.204   7.140   6.120
 9803  LAT   Au10343   0.000   7.140   6.324
 9804  LAT   Au10344   0.204   6.936   6.324
 9805  LAT   Au10345   0.408   6.936   6.120
 9806  LAT   Au10346   0.612   7.140   6.120
 9807  LAT   Au10347   0.408   7.140   6.324
 9808  LAT   Au10348   0.612   6.936   6.324
 9809  LAT   Au10349   0.816   6.936   6.120
 9810  LAT   Au10350   1.020   7.140   6.120
 9811  LAT   Au10351   0.816   7.140   6.324
 9812  LAT   Au10352   1.020   6.936   6.324
 9813  LAT   Au10353   1.224   6.936   6.120
 9814  LAT   Au10354   1.428   7.140   6.120
 9815  LAT   Au10355   1.224   7.140   6.324
 9816  LAT   Au10356   1.428   6.936   6.324
 9817  LAT   Au10357   1.632   6.936   6.120
 9818  LAT   Au10358   1.836   7.140   6.120
 9819  LAT   Au10359   1.632   7.140   6.324
 9820  LAT   Au10360   1.836   6.936   6.324
 9821  LAT   Au10361   2.040   6.936   6.120
 9822  LAT   Au10362   2.244   7.140   6.120
 9823  LAT   Au10363   2.040   7.140   6.324
 9824  LAT   Au10364   2.244   6.936   6.324
 9825  LAT   Au10365   2.448   6.936   6.120
 9826  LAT   Au10366   2.652   7.140   6.120
 9827  LAT   Au10367   2.448   7.140   6.324
 9828  LAT   Au10368   2.652   6.936   6.324
 9829  LAT   Au10369   2.856   6.936   6.120
 9830  LAT   Au10370   3.060   7.140   6.120
 9831  LAT   Au10371   2.856   7.140   6.324
 9832  LAT   Au10372   3.060   6.936   6.324
 9833  LAT   Au10373   3.264   6.936   6.120
 9834  LAT   Au10374   3.468   7.140   6.120
 9835  LAT   Au10375   3.264   7.140   6.324
 9836  LAT   Au10376   3.468   6.936   6.324
 9837  LAT   Au10377   3.672   6.936   6.120
 9838  LAT   Au10378   3.876   7.140   6.120
 9839  LAT   Au10379   3.672   7.140   6.324
 9840  LAT   Au10380   3.876   6.936   6.324
 9841  LAT   Au10381   4.080   6.936   6.120
 9842  LAT   Au10382   4.284   7.140   6.120
 9843  LAT   Au10383   4.080   7.140   6.324
 9844  LAT   Au10384   4.284   6.936   6.324
 9845  LAT   Au10385   4.488   6.936   6.120
 9846  LAT   Au10386   4.692   7.140   6.120
 9847  LAT   Au10387   4.488   7.140   6.324
 9848  LAT   Au10388   4.692   6.936   6.324
 9849  LAT   Au10389   4.896   6.936   6.120
 9850  LAT   Au10390   5.100   7.140   6.120
 9851  LAT   Au10391   4.896   7.140   6.324
 9852  LAT   Au10392   5.100   6.936   6.324
 9853  LAT   Au10393   5.304   6.936   6.120
 9854  LAT   Au10394   5.508   7.140   6.120
 9855  LAT   Au10395   5.304   7.140   6.324
 9856  LAT   Au10396   5.508   6.936   6.324
 9857  LAT   Au10397   5.712   6.936   6.120
 9858  LAT   Au10398   5.916   7.140   6.120
 9859  LAT   Au10399   5.712   7.140   6.324
 9860  LAT   Au10400   5.916   6.936   6.324
 9861  LAT   Au10401   6.120   6.936   6.120
 9862  LAT   Au10402   6.324   7.140   6.120
 9863  LAT   Au10403   6.120   7.140   6.324
 9864  LAT   Au10404   6.324   6.936   6.324
 9865  LAT   Au10405   6.528   6.936   6.120
 9866  LAT   Au10406   6.732   7.140   6.120
 9867  LAT   Au10407   6.528   7.140   6.324
 9868  LAT   Au10408   6.732   6.936   6.324
 9869  LAT   Au10409   6.936   6.936   6.120
 9870  LAT   Au10410   7.140   7.140   6.120
 9871  LAT   Au10411   6.936   7.140   6.324
 9872  LAT   Au10412   7.140   6.936   6.324
 9873  LAT   Au10413   0.000   0.000   6.528
 9874  LAT   Au10414   0.204   0.204   6.528
 9875  LAT   Au10415   0.000   0.204   6.732
 9876  LAT   Au10416   0.204   0.000   6.732
 9877  LAT   Au10417   0.408   0.000   6.528
 9878  LAT   Au10418   0.612   0.204   6.528
 9879  LAT   Au10419   0.408   0.204   6.732
 9880  LAT   Au10420   0.612   0.000   6.732
 9881  LAT   Au10421   0.816   0.000   6.528
 9882  LAT   Au10422   1.020   0.204   6.528
 9883  LAT   Au10423   0.816   0.204   6.732
 9884  LAT   Au10424   1.020   0.000   6.732
 9885  LAT   Au10425   1.224   0.000   6.528
 9886  LAT   Au10426   1.428   0.204   6.528
 9887  LAT   Au10427   1.224   0.204   6.732
 9888  LAT   Au10428   1.428   0.000   6.732
 9889  LAT   Au10429   1.632   0.000   6.528
 9890  LAT   Au10430   1.836   0.204   6.528
 9891  LAT   Au10431   1.632   0.204   6.732
 9892  LAT   Au10432   1.836   0.000   6.732
 9893  LAT   Au10433   2.040   0.000   6.528
 9894  LAT   Au10434   2.244   0.204   6.528
 9895  LAT   Au10435   2.040   0.204   6.732
 9896  LAT   Au10436   2.244   0.000   6.732
 9897  LAT   Au10437   2.448   0.000   6.528
 9898  LAT   Au10438   2.652   0.204   6.528
 9899  LAT   Au10439   2.448   0.204   6.732
 9900  LAT   Au10440   2.652   0.000   6.732
 9901  LAT   Au10441   2.856   0.000   6.528
 9902  LAT   Au10442   3.060   0.204   6.528
 9903  LAT   Au10443   2.856   0.204   6.732
 9904  LAT   Au10444   3.060   0.000   6.732
 9905  LAT   Au10445   3.264   0.000   6.528
 9906  LAT   Au10446   3.468   0.204   6.528
 9907  LAT   Au10447   3.264   0.204   6.732
 9908  LAT   Au10448   3.468   0.000   6.732
 9909  LAT   Au10449   3.672   0.000   6.528
 9910  LAT   Au10450   3.876   0.204   6.528
 9911  LAT   Au10451   3.672   0.204   6.732
 9912  LAT   Au10452   3.876   0.000   6.732
 9913  LAT   Au10453   4.080   0.000   6.528
 9914  LAT   Au10454   4.284   0.204   6.528
 9915  LAT   Au10455   4.080   0.204   6.732
 9916  LAT   Au10456   4.284   0.000   6.732
 9917  LAT   Au10457   4.488   0.000   6.528
 9918  LAT   Au10458   4.692   0.204   6.528
 9919  LAT   Au10459   4.488   0.204   6.732
 9920  LAT   Au10460   4.692   0.000   6.732
 9921  LAT   Au10461   4.896   0.000   6.528
 9922  LAT   Au10462   5.100   0.204   6.528
 9923  LAT   Au10463   4.896   0.204   6.732
 9924  LAT   Au10464   5.100   0.000   6.732
 9925  LAT   Au10465   5.304   0.000   6.528
 9926  LAT   Au10466   5.508   0.204   6.528
 9927  LAT   Au10467   5.304   0.204   6.732
 9928  LAT   Au10468   5.508   0.000   6.732
 9929  LAT   Au10469   5.712   0.000   6.528
 9930  LAT   Au10470   5.916   0.204   6.528
 9931  LAT   Au10471   5.712   0.204   6.732
 9932  LAT   Au10472   5.916   0.000   6.732
 9933  LAT   Au10473   6.120   0.000   6.528
 9934  LAT   Au10474   6.324   0.204   6.528
 9935  LAT   Au10475   6.120   0.204   6.732
 9936  LAT   Au10476   6.324   0.000   6.732
 9937  LAT   Au10477   6.528   0.000   6.528
 9938  LAT   Au10478   6.732   0.204   6.528
 9939  LAT   Au10479   6.528   0.204   6.732
 9940  LAT   Au10480   6.732   0.000   6.732
 9941  LAT   Au10481   6.936   0.000   6.528
 9942  LAT   Au10482   7.140   0.204   6.528
 9943  LAT   Au10483   6.936   0.204   6.732
 9944  LAT   Au10484   7.140   0.000   6.732
 9945  LAT   Au10485   0.000   0.408   6.528
 9946  LAT   Au10486   0.204   0.612   6.528
 9947  LAT   Au10487   0.000   0.612   6.732
 9948  LAT   Au10488   0.204   0.408   6.732
 9949  LAT   Au10489   0.408   0.408   6.528
 9950  LAT   Au10490   0.612   0.612   6.528
 9951  LAT   Au10491   0.408   0.612   6.732
 9952  LAT   Au10492   0.612   0.408   6.732
 9953  LAT   Au10493   0.816   0.408   6.528
 9954  LAT   Au10494   1.020   0.612   6.528
 9955  LAT   Au10495   0.816   0.612   6.732
 9956  LAT   Au10496   1.020   0.408   6.732
 9957  LAT   Au10497   1.224   0.408   6.528
 9958  LAT   Au10498   1.428   0.612   6.528
 9959  LAT   Au10499   1.224   0.612   6.732
 9960  LAT   Au10500   1.428   0.408   6.732
 9961  LAT   Au10501   1.632   0.408   6.528
 9962  LAT   Au10502   1.836   0.612   6.528
 9963  LAT   Au10503   1.632   0.612   6.732
 9964  LAT   Au10504   1.836   0.408   6.732
 9965  LAT   Au10505   2.040   0.408   6.528
 9966  LAT   Au10506   2.244   0.612   6.528
 9967  LAT   Au10507   2.040   0.612   6.732
 9968  LAT   Au10508   2.244   0.408   6.732
 9969  LAT   Au10509   2.448   0.408   6.528
 9970  LAT   Au10510   2.652   0.612   6.528
 9971  LAT   Au10511   2.448   0.612   6.732
 9972  LAT   Au10512   2.652   0.408   6.732
 9973  LAT   Au10513   2.856   0.408   6.528
 9974  LAT   Au10514   3.060   0.612   6.528
 9975  LAT   Au10515   2.856   0.612   6.732
 9976  LAT   Au10516   3.060   0.408   6.732
 9977  LAT   Au10517   3.264   0.408   6.528
 9978  LAT   Au10518   3.264   0.612   6.732
 9979  LAT   Au10519   3.468   0.408   6.732
 9980  LAT   Au10520   3.672   0.408   6.528
 9981  LAT   Au10521   3.876   0.408   6.732
 9982  LAT   Au10522   4.080   0.408   6.528
 9983  LAT   Au10523   4.284   0.612   6.528
 9984  LAT   Au10524   4.080   0.612   6.732
 9985  LAT   Au10525   4.284   0.408   6.732
 9986  LAT   Au10526   4.488   0.408   6.528
 9987  LAT   Au10527   4.692   0.612   6.528
 9988  LAT   Au10528   4.488   0.612   6.732
 9989  LAT   Au10529   4.692   0.408   6.732
 9990  LAT   Au10530   4.896   0.408   6.528
 9991  LAT   Au10531   5.100   0.612   6.528
 9992  LAT   Au10532   4.896   0.612   6.732
 9993  LAT   Au10533   5.100   0.408   6.732
 9994  LAT   Au10534   5.304   0.408   6.528
 9995  LAT   Au10535   5.508   0.612   6.528
 9996  LAT   Au10536   5.304   0.612   6.732
 9997  LAT   Au10537   5.508   0.408   6.732
 9998  LAT   Au10538   5.712   0.408   6.528
 9999  LAT   Au10539   5.916   0.612   6.528
10000  LAT   Au10540   5.712   0.612   6.732
10001  LAT   Au10541   5.916   0.408   6.732
10002  LAT   Au10542   6.120   0.408   6.528
10003  LAT   Au10543   6.324   0.612   6.528
10004  LAT   Au10544   6.120   0.612   6.732
10005  LAT   Au10545   6.324   0.408   6.732
10006  LAT   Au10546   6.528   0.408   6.528
10007  LAT   Au10547   6.732   0.612   6.528
10008  LAT   Au10548   6.528   0.612   6.732
10009  LAT   Au10549   6.732   0.408   6.732
10010  LAT   Au10550   6.936   0.408   6.528
10011  LAT   Au10551   7.140   0.612   6.528
10012  LAT   Au10552   6.936   0.612   6.732
10013  LAT   Au10553   7.140   0.408   6.732
10014  LAT   Au10554   0.000   0.816   6.528
10015  LAT   Au10555   0.204   1.020   6.528
10016  LAT   Au10556   0.000   1.020   6.732
10017  LAT   Au10557   0.204   0.816   6.732
10018  LAT   Au10558   0.408   0.816   6.528
10019  LAT   Au10559   0.612   1.020   6.528
10020  LAT   Au10560   0.408   1.020   6.732
10021  LAT   Au10561   0.612   0.816   6.732
10022  LAT   Au10562   0.816   0.816   6.528
10023  LAT   Au10563   1.020   1.020   6.528
10024  LAT   Au10564   0.816   1.020   6.732
10025  LAT   Au10565   1.020   0.816   6.732
10026  LAT   Au10566   1.224   0.816   6.528
10027  LAT   Au10567   1.428   1.020   6.528
10028  LAT   Au10568   1.224   1.020   6.732
10029  LAT   Au10569   1.428   0.816   6.732
10030  LAT   Au10570   1.632   0.816   6.528
10031  LAT   Au10571   1.836   1.020   6.528
10032  LAT   Au10572   1.632   1.020   6.732
10033  LAT   Au10573   1.836   0.816   6.732
10034  LAT   Au10574   2.040   0.816   6.528
10035  LAT   Au10575   2.040   1.020   6.732
10036  LAT   Au10576   2.244   0.816   6.732
10037  LAT   Au10577   2.448   0.816   6.528
10038  LAT   Au10578   4.896   0.816   6.528
10039  LAT   Au10579   5.100   0.816   6.732
10040  LAT   Au10580   5.304   0.816   6.528
10041  LAT   Au10581   5.508   1.020   6.528
10042  LAT   Au10582   5.304   1.020   6.732
10043  LAT   Au10583   5.508   0.816   6.732
10044  LAT   Au10584   5.712   0.816   6.528
10045  LAT   Au10585   5.916   1.020   6.528
10046  LAT   Au10586   5.712   1.020   6.732
10047  LAT   Au10587   5.916   0.816   6.732
10048  LAT   Au10588   6.120   0.816   6.528
10049  LAT   Au10589   6.324   1.020   6.528
10050  LAT   Au10590   6.120   1.020   6.732
10051  LAT   Au10591   6.324   0.816   6.732
10052  LAT   Au10592   6.528   0.816   6.528
10053  LAT   Au10593   6.732   1.020   6.528
10054  LAT   Au10594   6.528   1.020   6.732
10055  LAT   Au10595   6.732   0.816   6.732
10056  LAT   Au10596   6.936   0.816   6.528
10057  LAT   Au10597   7.140   1.020   6.528
10058  LAT   Au10598   6.936   1.020   6.732
10059  LAT   Au10599   7.140   0.816   6.732
10060  LAT   Au10600   0.000   1.224   6.528
10061  LAT   Au10601   0.204   1.428   6.528
10062  LAT   Au10602   0.000   1.428   6.732
10063  LAT   Au10603   0.204   1.224   6.732
10064  LAT   Au10604   0.408   1.224   6.528
10065  LAT   Au10605   0.612   1.428   6.528
10066  LAT   Au10606   0.408   1.428   6.732
10067  LAT   Au10607   0.612   1.224   6.732
10068  LAT   Au10608   0.816   1.224   6.528
10069  LAT   Au10609   1.020   1.428   6.528
10070  LAT   Au10610   0.816   1.428   6.732
10071  LAT   Au10611   1.020   1.224   6.732
10072  LAT   Au10612   1.224   1.224   6.528
10073  LAT   Au10613   1.428   1.428   6.528
10074  LAT   Au10614   1.224   1.428   6.732
10075  LAT   Au10615   1.428   1.224   6.732
10076  LAT   Au10616   1.632   1.224   6.528
10077  LAT   Au10617   5.508   1.224   6.732
10078  LAT   Au10618   5.712   1.224   6.528
10079  LAT   Au10619   5.916   1.428   6.528
10080  LAT   Au10620   5.712   1.428   6.732
10081  LAT   Au10621   5.916   1.224   6.732
10082  LAT   Au10622   6.120   1.224   6.528
10083  LAT   Au10623   6.324   1.428   6.528
10084  LAT   Au10624   6.120   1.428   6.732
10085  LAT   Au10625   6.324   1.224   6.732
10086  LAT   Au10626   6.528   1.224   6.528
10087  LAT   Au10627   6.732   1.428   6.528
10088  LAT   Au10628   6.528   1.428   6.732
10089  LAT   Au10629   6.732   1.224   6.732
10090  LAT   Au10630   6.936   1.224   6.528
10091  LAT   Au10631   7.140   1.428   6.528
10092  LAT   Au10632   6.936   1.428   6.732
10093  LAT   Au10633   7.140   1.224   6.732
10094  LAT   Au10634   0.000   1.632   6.528
10095  LAT   Au10635   0.204   1.836   6.528
10096  LAT   Au10636   0.000   1.836   6.732
10097  LAT   Au10637   0.204   1.632   6.732
10098  LAT   Au10638   0.408   1.632   6.528
10099  LAT   Au10639   0.612   1.836   6.528
10100  LAT   Au10640   0.408   1.836   6.732
10101  LAT   Au10641   0.612   1.632   6.732
10102  LAT   Au10642   0.816   1.632   6.528
10103  LAT   Au10643   1.020   1.836   6.528
10104  LAT   Au10644   0.816   1.836   6.732
10105  LAT   Au10645   1.020   1.632   6.732
10106  LAT   Au10646   1.224   1.632   6.528
10107  LAT   Au10647   5.916   1.632   6.732
10108  LAT   Au10648   6.120   1.632   6.528
10109  LAT   Au10649   6.324   1.836   6.528
10110  LAT   Au10650   6.120   1.836   6.732
10111  LAT   Au10651   6.324   1.632   6.732
10112  LAT   Au10652   6.528   1.632   6.528
10113  LAT   Au10653   6.732   1.836   6.528
10114  LAT   Au10654   6.528   1.836   6.732
10115  LAT   Au10655   6.732   1.632   6.732
10116  LAT   Au10656   6.936   1.632   6.528
10117  LAT   Au10657   7.140   1.836   6.528
10118  LAT   Au10658   6.936   1.836   6.732
10119  LAT   Au10659   7.140   1.632   6.732
10120  LAT   Au10660   0.000   2.040   6.528
10121  LAT   Au10661   0.204   2.244   6.528
10122  LAT   Au10662   0.000   2.244   6.732
10123  LAT   Au10663   0.204   2.040   6.732
10124  LAT   Au10664   0.408   2.040   6.528
10125  LAT   Au10665   0.612   2.244   6.528
10126  LAT   Au10666   0.408   2.244   6.732
10127  LAT   Au10667   0.612   2.040   6.732
10128  LAT   Au10668   0.816   2.040   6.528
10129  LAT   Au10669   0.816   2.244   6.732
10130  LAT   Au10670   1.020   2.040   6.732
10131  LAT   Au10671   6.324   2.244   6.528
10132  LAT   Au10672   6.324   2.040   6.732
10133  LAT   Au10673   6.528   2.040   6.528
10134  LAT   Au10674   6.732   2.244   6.528
10135  LAT   Au10675   6.528   2.244   6.732
10136  LAT   Au10676   6.732   2.040   6.732
10137  LAT   Au10677   6.936   2.040   6.528
10138  LAT   Au10678   7.140   2.244   6.528
10139  LAT   Au10679   6.936   2.244   6.732
10140  LAT   Au10680   7.140   2.040   6.732
10141  LAT   Au10681   0.000   2.448   6.528
10142  LAT   Au10682   0.204   2.652   6.528
10143  LAT   Au10683   0.000   2.652   6.732
10144  LAT   Au10684   0.204   2.448   6.732
10145  LAT   Au10685   0.408   2.448   6.528
10146  LAT   Au10686   0.612   2.652   6.528
10147  LAT   Au10687   0.408   2.652   6.732
10148  LAT   Au10688   0.612   2.448   6.732
10149  LAT   Au10689   0.816   2.448   6.528
10150  LAT   Au10690   6.528   2.448   6.528
10151  LAT   Au10691   6.732   2.652   6.528
10152  LAT   Au10692   6.528   2.652   6.732
10153  LAT   Au10693   6.732   2.448   6.732
10154  LAT   Au10694   6.936   2.448   6.528
10155  LAT   Au10695   7.140   2.652   6.528
10156  LAT   Au10696   6.936   2.652   6.732
10157  LAT   Au10697   7.140   2.448   6.732
10158  LAT   Au10698   0.000   2.856   6.528
10159  LAT   Au10699   0.204   3.060   6.528
10160  LAT   Au10700   0.000   3.060   6.732
10161  LAT   Au10701   0.204   2.856   6.732
10162  LAT   Au10702   0.408   2.856   6.528
10163  LAT   Au10703   0.612   3.060   6.528
10164  LAT   Au10704   0.408   3.060   6.732
10165  LAT   Au10705   0.612   2.856   6.732
10166  LAT   Au10706   6.528   2.856   6.528
10167  LAT   Au10707   6.732   3.060   6.528
10168  LAT   Au10708   6.732   2.856   6.732
10169  LAT   Au10709   6.936   2.856   6.528
10170  LAT   Au10710   7.140   3.060   6.528
10171  LAT   Au10711   6.936   3.060   6.732
10172  LAT   Au10712   7.140   2.856   6.732
10173  LAT   Au10713   0.000   3.264   6.528
10174  LAT   Au10714   0.204   3.468   6.528
10175  LAT   Au10715   0.000   3.468   6.732
10176  LAT   Au10716   0.204   3.264   6.732
10177  LAT   Au10717   0.408   3.264   6.528
10178  LAT   Au10718   0.408   3.468   6.732
10179  LAT   Au10719   0.612   3.264   6.732
10180  LAT   Au10720   6.732   3.468   6.528
10181  LAT   Au10721   6.732   3.264   6.732
10182  LAT   Au10722   6.936   3.264   6.528
10183  LAT   Au10723   7.140   3.468   6.528
10184  LAT   Au10724   6.936   3.468   6.732
10185  LAT   Au10725   7.140   3.264   6.732
10186  LAT   Au10726   0.000   3.672   6.528
10187  LAT   Au10727   0.204   3.876   6.528
10188  LAT   Au10728   0.000   3.876   6.732
10189  LAT   Au10729   0.204   3.672   6.732
10190  LAT   Au10730   0.408   3.672   6.528
10191  LAT   Au10731   0.408   3.876   6.732
10192  LAT   Au10732   6.732   3.876   6.528
10193  LAT   Au10733   6.732   3.672   6.732
10194  LAT   Au10734   6.936   3.672   6.528
10195  LAT   Au10735   7.140   3.876   6.528
10196  LAT   Au10736   6.936   3.876   6.732
10197  LAT   Au10737   7.140   3.672   6.732
10198  LAT   Au10738   0.000   4.080   6.528
10199  LAT   Au10739   0.204   4.284   6.528
10200  LAT   Au10740   0.000   4.284   6.732
10201  LAT   Au10741   0.204   4.080   6.732
10202  LAT   Au10742   0.408   4.080   6.528
10203  LAT   Au10743   0.612   4.284   6.528
10204  LAT   Au10744   0.408   4.284   6.732
10205  LAT   Au10745   0.612   4.080   6.732
10206  LAT   Au10746   6.732   4.284   6.528
10207  LAT   Au10747   6.528   4.284   6.732
10208  LAT   Au10748   6.732   4.080   6.732
10209  LAT   Au10749   6.936   4.080   6.528
10210  LAT   Au10750   7.140   4.284   6.528
10211  LAT   Au10751   6.936   4.284   6.732
10212  LAT   Au10752   7.140   4.080   6.732
10213  LAT   Au10753   0.000   4.488   6.528
10214  LAT   Au10754   0.204   4.692   6.528
10215  LAT   Au10755   0.000   4.692   6.732
10216  LAT   Au10756   0.204   4.488   6.732
10217  LAT   Au10757   0.408   4.488   6.528
10218  LAT   Au10758   0.612   4.692   6.528
10219  LAT   Au10759   0.408   4.692   6.732
10220  LAT   Au10760   0.612   4.488   6.732
10221  LAT   Au10761   6.528   4.488   6.528
10222  LAT   Au10762   6.732   4.692   6.528
10223  LAT   Au10763   6.528   4.692   6.732
10224  LAT   Au10764   6.732   4.488   6.732
10225  LAT   Au10765   6.936   4.488   6.528
10226  LAT   Au10766   7.140   4.692   6.528
10227  LAT   Au10767   6.936   4.692   6.732
10228  LAT   Au10768   7.140   4.488   6.732
10229  LAT   Au10769   0.000   4.896   6.528
10230  LAT   Au10770   0.204   5.100   6.528
10231  LAT   Au10771   0.000   5.100   6.732
10232  LAT   Au10772   0.204   4.896   6.732
10233  LAT   Au10773   0.408   4.896   6.528
10234  LAT   Au10774   0.612   5.100   6.528
10235  LAT   Au10775   0.408   5.100   6.732
10236  LAT   Au10776   0.612   4.896   6.732
10237  LAT   Au10777   0.816   4.896   6.528
10238  LAT   Au10778   0.816   5.100   6.732
10239  LAT   Au10779   6.324   5.100   6.528
10240  LAT   Au10780   6.324   4.896   6.732
10241  LAT   Au10781   6.528   4.896   6.528
10242  LAT   Au10782   6.732   5.100   6.528
10243  LAT   Au10783   6.528   5.100   6.732
10244  LAT   Au10784   6.732   4.896   6.732
10245  LAT   Au10785   6.936   4.896   6.528
10246  LAT   Au10786   7.140   5.100   6.528
10247  LAT   Au10787   6.936   5.100   6.732
10248  LAT   Au10788   7.140   4.896   6.732
10249  LAT   Au10789   0.000   5.304   6.528
10250  LAT   Au10790   0.204   5.508   6.528
10251  LAT   Au10791   0.000   5.508   6.732
10252  LAT   Au10792   0.204   5.304   6.732
10253  LAT   Au10793   0.408   5.304   6.528
10254  LAT   Au10794   0.612   5.508   6.528
10255  LAT   Au10795   0.408   5.508   6.732
10256  LAT   Au10796   0.612   5.304   6.732
10257  LAT   Au10797   0.816   5.304   6.528
10258  LAT   Au10798   1.020   5.508   6.528
10259  LAT   Au10799   0.816   5.508   6.732
10260  LAT   Au10800   1.020   5.304   6.732
10261  LAT   Au10801   1.224   5.508   6.732
10262  LAT   Au10802   5.916   5.508   6.528
10263  LAT   Au10803   6.120   5.304   6.528
10264  LAT   Au10804   6.324   5.508   6.528
10265  LAT   Au10805   6.120   5.508   6.732
10266  LAT   Au10806   6.324   5.304   6.732
10267  LAT   Au10807   6.528   5.304   6.528
10268  LAT   Au10808   6.732   5.508   6.528
10269  LAT   Au10809   6.528   5.508   6.732
10270  LAT   Au10810   6.732   5.304   6.732
10271  LAT   Au10811   6.936   5.304   6.528
10272  LAT   Au10812   7.140   5.508   6.528
10273  LAT   Au10813   6.936   5.508   6.732
10274  LAT   Au10814   7.140   5.304   6.732
10275  LAT   Au10815   0.000   5.712   6.528
10276  LAT   Au10816   0.204   5.916   6.528
10277  LAT   Au10817   0.000   5.916   6.732
10278  LAT   Au10818   0.204   5.712   6.732
10279  LAT   Au10819   0.408   5.712   6.528
10280  LAT   Au10820   0.612   5.916   6.528
10281  LAT   Au10821   0.408   5.916   6.732
10282  LAT   Au10822   0.612   5.712   6.732
10283  LAT   Au10823   0.816   5.712   6.528
10284  LAT   Au10824   1.020   5.916   6.528
10285  LAT   Au10825   0.816   5.916   6.732
10286  LAT   Au10826   1.020   5.712   6.732
10287  LAT   Au10827   1.224   5.712   6.528
10288  LAT   Au10828   1.428   5.916   6.528
10289  LAT   Au10829   1.224   5.916   6.732
10290  LAT   Au10830   1.428   5.712   6.732
10291  LAT   Au10831   1.632   5.916   6.732
10292  LAT   Au10832   5.508   5.916   6.528
10293  LAT   Au10833   5.916   5.916   6.528
10294  LAT   Au10834   5.712   5.916   6.732
10295  LAT   Au10835   5.916   5.712   6.732
10296  LAT   Au10836   6.120   5.712   6.528
10297  LAT   Au10837   6.324   5.916   6.528
10298  LAT   Au10838   6.120   5.916   6.732
10299  LAT   Au10839   6.324   5.712   6.732
10300  LAT   Au10840   6.528   5.712   6.528
10301  LAT   Au10841   6.732   5.916   6.528
10302  LAT   Au10842   6.528   5.916   6.732
10303  LAT   Au10843   6.732   5.712   6.732
10304  LAT   Au10844   6.936   5.712   6.528
10305  LAT   Au10845   7.140   5.916   6.528
10306  LAT   Au10846   6.936   5.916   6.732
10307  LAT   Au10847   7.140   5.712   6.732
10308  LAT   Au10848   0.000   6.120   6.528
10309  LAT   Au10849   0.204   6.324   6.528
10310  LAT   Au10850   0.000   6.324   6.732
10311  LAT   Au10851   0.204   6.120   6.732
10312  LAT   Au10852   0.408   6.120   6.528
10313  LAT   Au10853   0.612   6.324   6.528
10314  LAT   Au10854   0.408   6.324   6.732
10315  LAT   Au10855   0.612   6.120   6.732
10316  LAT   Au10856   0.816   6.120   6.528
10317  LAT   Au10857   1.020   6.324   6.528
10318  LAT   Au10858   0.816   6.324   6.732
10319  LAT   Au10859   1.020   6.120   6.732
10320  LAT   Au10860   1.224   6.120   6.528
10321  LAT   Au10861   1.428   6.324   6.528
10322  LAT   Au10862   1.224   6.324   6.732
10323  LAT   Au10863   1.428   6.120   6.732
10324  LAT   Au10864   1.632   6.120   6.528
10325  LAT   Au10865   1.836   6.324   6.528
10326  LAT   Au10866   1.632   6.324   6.732
10327  LAT   Au10867   1.836   6.120   6.732
10328  LAT   Au10868   2.244   6.324   6.528
10329  LAT   Au10869   2.040   6.324   6.732
10330  LAT   Au10870   5.100   6.324   6.528
10331  LAT   Au10871   4.896   6.324   6.732
10332  LAT   Au10872   5.304   6.120   6.528
10333  LAT   Au10873   5.508   6.324   6.528
10334  LAT   Au10874   5.304   6.324   6.732
10335  LAT   Au10875   5.508   6.120   6.732
10336  LAT   Au10876   5.712   6.120   6.528
10337  LAT   Au10877   5.916   6.324   6.528
10338  LAT   Au10878   5.712   6.324   6.732
10339  LAT   Au10879   5.916   6.120   6.732
10340  LAT   Au10880   6.120   6.120   6.528
10341  LAT   Au10881   6.324   6.324   6.528
10342  LAT   Au10882   6.120   6.324   6.732
10343  LAT   Au10883   6.324   6.120   6.732
10344  LAT   Au10884   6.528   6.120   6.528
10345  LAT   Au10885   6.732   6.324   6.528
10346  LAT   Au10886   6.528   6.324   6.732
10347  LAT   Au10887   6.732   6.120   6.732
10348  LAT   Au10888   6.936   6.120   6.528
10349  LAT   Au10889   7.140   6.324   6.528
10350  LAT   Au10890   6.936   6.324   6.732
10351  LAT   Au10891   7.140   6.120   6.732
10352  LAT   Au10892   0.000   6.528   6.528
10353  LAT   Au10893   0.204   6.732   6.528
10354  LAT   Au10894   0.000   6.732   6.732
10355  LAT   Au10895   0.204   6.528   6.732
10356  LAT   Au10896   0.408   6.528   6.528
10357  LAT   Au10897   0.612   6.732   6.528
10358  LAT   Au10898   0.408   6.732   6.732
10359  LAT   Au10899   0.612   6.528   6.732
10360  LAT   Au10900   0.816   6.528   6.528
10361  LAT   Au10901   1.020   6.732   6.528
10362  LAT   Au10902   0.816   6.732   6.732
10363  LAT   Au10903   1.020   6.528   6.732
10364  LAT   Au10904   1.224   6.528   6.528
10365  LAT   Au10905   1.428   6.732   6.528
10366  LAT   Au10906   1.224   6.732   6.732
10367  LAT   Au10907   1.428   6.528   6.732
10368  LAT   Au10908   1.632   6.528   6.528
10369  LAT   Au10909   1.836   6.732   6.528
10370  LAT   Au10910   1.632   6.732   6.732
10371  LAT   Au10911   1.836   6.528   6.732
10372  LAT   Au10912   2.040   6.528   6.528
10373  LAT   Au10913   2.244   6.732   6.528
10374  LAT   Au10914   2.040   6.732   6.732
10375  LAT   Au10915   2.244   6.528   6.732
10376  LAT   Au10916   2.448   6.528   6.528
10377  LAT   Au10917   2.652   6.732   6.528
10378  LAT   Au10918   2.448   6.732   6.732
10379  LAT   Au10919   2.652   6.528   6.732
10380  LAT   Au10920   2.856   6.528   6.528
10381  LAT   Au10921   3.060   6.732   6.528
10382  LAT   Au10922   2.856   6.732   6.732
10383  LAT   Au10923   3.468   6.732   6.528
10384  LAT   Au10924   3.264   6.732   6.732
10385  LAT   Au10925   3.876   6.732   6.528
10386  LAT   Au10926   3.672   6.732   6.732
10387  LAT   Au10927   4.284   6.732   6.528
10388  LAT   Au10928   4.080   6.732   6.732
10389  LAT   Au10929   4.284   6.528   6.732
10390  LAT   Au10930   4.488   6.528   6.528
10391  LAT   Au10931   4.692   6.732   6.528
10392  LAT   Au10932   4.488   6.732   6.732
10393  LAT   Au10933   4.692   6.528   6.732
10394  LAT   Au10934   4.896   6.528   6.528
10395  LAT   Au10935   5.100   6.732   6.528
10396  LAT   Au10936   4.896   6.732   6.732
10397  LAT   Au10937   5.100   6.528   6.732
10398  LAT   Au10938   5.304   6.528   6.528
10399  LAT   Au10939   5.508   6.732   6.528
10400  LAT   Au10940   5.304   6.732   6.732
10401  LAT   Au10941   5.508   6.528   6.732
10402  LAT   Au10942   5.712   6.528   6.528
10403  LAT   Au10943   5.916   6.732   6.528
10404  LAT   Au10944   5.712   6.732   6.732
10405  LAT   Au10945   5.916   6.528   6.732
10406  LAT   Au10946   6.120   6.528   6.528
10407  LAT   Au10947   6.324   6.732   6.528
10408  LAT   Au10948   6.120   6.732   6.732
10409  LAT   Au10949   6.324   6.528   6.732
10410  LAT   Au10950   6.528   6.528   6.528
10411  LAT   Au10951   6.732   6.732   6.528
10412  LAT   Au10952   6.528   6.732   6.732
10413  LAT   Au10953   6.732   6.528   6.732
10414  LAT   Au10954   6.936   6.528   6.528
10415  LAT   Au10955   7.140   6.732   6.528
10416  LAT   Au10956   6.936   6.732   6.732
10417  LAT   Au10957   7.140   6.528   6.732
10418  LAT   Au10958   0.000   6.936   6.528
10419  LAT   Au10959   0.204   7.140   6.528
10420  LAT   Au10960   0.000   7.140   6.732
10421  LAT   Au10961   0.204   6.936   6.732
10422  LAT   Au10962   0.408   6.936   6.528
10423  LAT   Au10963   0.612   7.140   6.528
10424  LAT   Au10964   0.408   7.140   6.732
10425  LAT   Au10965   0.612   6.936   6.732
10426  LAT   Au10966   0.816   6.936   6.528
10427  LAT   Au10967   1.020   7.140   6.528
10428  LAT   Au10968   0.816   7.140   6.732
10429  LAT   Au10969   1.020   6.936   6.732
10430  LAT   Au10970   1.224   6.936   6.528
10431  LAT   Au10971   1.428   7.140   6.528
10432  LAT   Au10972   1.224   7.140   6.732
10433  LAT   Au10973   1.428   6.936   6.732
10434  LAT   Au10974   1.632   6.936   6.528
10435  LAT   Au10975   1.836   7.140   6.528
10436  LAT   Au10976   1.632   7.140   6.732
10437  LAT   Au10977   1.836   6.936   6.732
10438  LAT   Au10978   2.040   6.936   6.528
10439  LAT   Au10979   2.244   7.140   6.528
10440  LAT   Au10980   2.040   7.140   6.732
10441  LAT   Au10981   2.244   6.936   6.732
10442  LAT   Au10982   2.448   6.936   6.528
10443  LAT   Au10983   2.652   7.140   6.528
10444  LAT   Au10984   2.448   7.140   6.732
10445  LAT   Au10985   2.652   6.936   6.732
10446  LAT   Au10986   2.856   6.936   6.528
10447  LAT   Au10987   3.060   7.140   6.528
10448  LAT   Au10988   2.856   7.140   6.732
10449  LAT   Au10989   3.060   6.936   6.732
10450  LAT   Au10990   3.264   6.936   6.528
10451  LAT   Au10991   3.468   7.140   6.528
10452  LAT   Au10992   3.264   7.140   6.732
10453  LAT   Au10993   3.468   6.936   6.732
10454  LAT   Au10994   3.672   6.936   6.528
10455  LAT   Au10995   3.876   7.140   6.528
10456  LAT   Au10996   3.672   7.140   6.732
10457  LAT   Au10997   3.876   6.936   6.732
10458  LAT   Au10998   4.080   6.936   6.528
10459  LAT   Au10999   4.284   7.140   6.528
10460  LAT   Au11000   4.080   7.140   6.732
10461  LAT   Au11001   4.284   6.936   6.732
10462  LAT   Au11002   4.488   6.936   6.528
10463  LAT   Au11003   4.692   7.140   6.528
10464  LAT   Au11004   4.488   7.140   6.732
10465  LAT   Au11005   4.692   6.936   6.732
10466  LAT   Au11006   4.896   6.936   6.528
10467  LAT   Au11007   5.100   7.140   6.528
10468  LAT   Au11008   4.896   7.140   6.732
10469  LAT   Au11009   5.100   6.936   6.732
10470  LAT   Au11010   5.304   6.936   6.528
10471  LAT   Au11011   5.508   7.140   6.528
10472  LAT   Au11012   5.304   7.140   6.732
10473  LAT   Au11013   5.508   6.936   6.732
10474  LAT   Au11014   5.712   6.936   6.528
10475  LAT   Au11015   5.916   7.140   6.528
10476  LAT   Au11016   5.712   7.140   6.732
10477  LAT   Au11017   5.916   6.936   6.732
10478  LAT   Au11018   6.120   6.936   6.528
10479  LAT   Au11019   6.324   7.140   6.528
10480  LAT   Au11020   6.120   7.140   6.732
10481  LAT   Au11021   6.324   6.936   6.732
10482  LAT   Au11022   6.528   6.936   6.528
10483  LAT   Au11023   6.732   7.140   6.528
10484  LAT   Au11024   6.528   7.140   6.732
10485  LAT   Au11025   6.732   6.936   6.732
10486  LAT   Au11026   6.936   6.936   6.528
10487  LAT   Au11027   7.140   7.140   6.528
10488  LAT   Au11028   6.936   7.140   6.732
10489  LAT   Au11029   7.140   6.936   6.732
10490  LAT   Au11030   0.000   0.000   6.936
10491  LAT   Au11031   0.204   0.204   6.936
10492  LAT   Au11032   0.000   0.204   7.140
10493  LAT   Au11033   0.204   0.000   7.140
10494  LAT   Au11034   0.408   0.000   6.936
10495  LAT   Au11035   0.612   0.204   6.936
10496  LAT   Au11036   0.408   0.204   7.140
10497  LAT   Au11037   0.612   0.000   7.140
10498  LAT   Au11038   0.816   0.000   6.936
10499  LAT   Au11039   1.020   0.204   6.936
10500  LAT   Au11040   0.816   0.204   7.140
10501  LAT   Au11041   1.020   0.000   7.140
10502  LAT   Au11042   1.224   0.000   6.936
10503  LAT   Au11043   1.428   0.204   6.936
10504  LAT   Au11044   1.224   0.204   7.140
10505  LAT   Au11045   1.428   0.000   7.140
10506  LAT   Au11046   1.632   0.000   6.936
10507  LAT   Au11047   1.836   0.204   6.936
10508  LAT   Au11048   1.632   0.204   7.140
10509  LAT   Au11049   1.836   0.000   7.140
10510  LAT   Au11050   2.040   0.000   6.936
10511  LAT   Au11051   2.244   0.204   6.936
10512  LAT   Au11052   2.040   0.204   7.140
10513  LAT   Au11053   2.244   0.000   7.140
10514  LAT   Au11054   2.448   0.000   6.936
10515  LAT   Au11055   2.652   0.204   6.936
10516  LAT   Au11056   2.448   0.204   7.140
10517  LAT   Au11057   2.652   0.000   7.140
10518  LAT   Au11058   2.856   0.000   6.936
10519  LAT   Au11059   3.060   0.204   6.936
10520  LAT   Au11060   2.856   0.204   7.140
10521  LAT   Au11061   3.060   0.000   7.140
10522  LAT   Au11062   3.264   0.000   6.936
10523  LAT   Au11063   3.468   0.204   6.936
10524  LAT   Au11064   3.264   0.204   7.140
10525  LAT   Au11065   3.468   0.000   7.140
10526  LAT   Au11066   3.672   0.000   6.936
10527  LAT   Au11067   3.876   0.204   6.936
10528  LAT   Au11068   3.672   0.204   7.140
10529  LAT   Au11069   3.876   0.000   7.140
10530  LAT   Au11070   4.080   0.000   6.936
10531  LAT   Au11071   4.284   0.204   6.936
10532  LAT   Au11072   4.080   0.204   7.140
10533  LAT   Au11073   4.284   0.000   7.140
10534  LAT   Au11074   4.488   0.000   6.936
10535  LAT   Au11075   4.692   0.204   6.936
10536  LAT   Au11076   4.488   0.204   7.140
10537  LAT   Au11077   4.692   0.000   7.140
10538  LAT   Au11078   4.896   0.000   6.936
10539  LAT   Au11079   5.100   0.204   6.936
10540  LAT   Au11080   4.896   0.204   7.140
10541  LAT   Au11081   5.100   0.000   7.140
10542  LAT   Au11082   5.304   0.000   6.936
10543  LAT   Au11083   5.508   0.204   6.936
10544  LAT   Au11084   5.304   0.204   7.140
10545  LAT   Au11085   5.508   0.000   7.140
10546  LAT   Au11086   5.712   0.000   6.936
10547  LAT   Au11087   5.916   0.204   6.936
10548  LAT   Au11088   5.712   0.204   7.140
10549  LAT   Au11089   5.916   0.000   7.140
10550  LAT   Au11090   6.120   0.000   6.936
10551  LAT   Au11091   6.324   0.204   6.936
10552  LAT   Au11092   6.120   0.204   7.140
10553  LAT   Au11093   6.324   0.000   7.140
10554  LAT   Au11094   6.528   0.000   6.936
10555  LAT   Au11095   6.732   0.204   6.936
10556  LAT   Au11096   6.528   0.204   7.140
10557  LAT   Au11097   6.732   0.000   7.140
10558  LAT   Au11098   6.936   0.000   6.936
10559  LAT   Au11099   7.140   0.204   6.936
10560  LAT   Au11100   6.936   0.204   7.140
10561  LAT   Au11101   7.140   0.000   7.140
10562  LAT   Au11102   0.000   0.408   6.936
10563  LAT   Au11103   0.204   0.612   6.936
10564  LAT   Au11104   0.000   0.612   7.140
10565  LAT   Au11105   0.204   0.408   7.140
10566  LAT   Au11106   0.408   0.408   6.936
10567  LAT   Au11107   0.612   0.612   6.936
10568  LAT   Au11108   0.408   0.612   7.140
10569  LAT   Au11109   0.612   0.408   7.140
10570  LAT   Au11110   0.816   0.408   6.936
10571  LAT   Au11111   1.020   0.612   6.936
10572  LAT   Au11112   0.816   0.612   7.140
10573  LAT   Au11113   1.020   0.408   7.140
10574  LAT   Au11114   1.224   0.408   6.936
10575  LAT   Au11115   1.428   0.612   6.936
10576  LAT   Au11116   1.224   0.612   7.140
10577  LAT   Au11117   1.428   0.408   7.140
10578  LAT   Au11118   1.632   0.408   6.936
10579  LAT   Au11119   1.836   0.612   6.936
10580  LAT   Au11120   1.632   0.612   7.140
10581  LAT   Au11121   1.836   0.408   7.140
10582  LAT   Au11122   2.040   0.408   6.936
10583  LAT   Au11123   2.244   0.612   6.936
10584  LAT   Au11124   2.040   0.612   7.140
10585  LAT   Au11125   2.244   0.408   7.140
10586  LAT   Au11126   2.448   0.408   6.936
10587  LAT   Au11127   2.652   0.612   6.936
10588  LAT   Au11128   2.448   0.612   7.140
10589  LAT   Au11129   2.652   0.408   7.140
10590  LAT   Au11130   2.856   0.408   6.936
10591  LAT   Au11131   3.060   0.612   6.936
10592  LAT   Au11132   2.856   0.612   7.140
10593  LAT   Au11133   3.060   0.408   7.140
10594  LAT   Au11134   3.264   0.408   6.936
10595  LAT   Au11135   3.264   0.612   7.140
10596  LAT   Au11136   3.468   0.408   7.140
10597  LAT   Au11137   3.672   0.408   6.936
10598  LAT   Au11138   3.876   0.408   7.140
10599  LAT   Au11139   4.080   0.408   6.936
10600  LAT   Au11140   4.284   0.612   6.936
10601  LAT   Au11141   4.080   0.612   7.140
10602  LAT   Au11142   4.284   0.408   7.140
10603  LAT   Au11143   4.488   0.408   6.936
10604  LAT   Au11144   4.692   0.612   6.936
10605  LAT   Au11145   4.488   0.612   7.140
10606  LAT   Au11146   4.692   0.408   7.140
10607  LAT   Au11147   4.896   0.408   6.936
10608  LAT   Au11148   5.100   0.612   6.936
10609  LAT   Au11149   4.896   0.612   7.140
10610  LAT   Au11150   5.100   0.408   7.140
10611  LAT   Au11151   5.304   0.408   6.936
10612  LAT   Au11152   5.508   0.612   6.936
10613  LAT   Au11153   5.304   0.612   7.140
10614  LAT   Au11154   5.508   0.408   7.140
10615  LAT   Au11155   5.712   0.408   6.936
10616  LAT   Au11156   5.916   0.612   6.936
10617  LAT   Au11157   5.712   0.612   7.140
10618  LAT   Au11158   5.916   0.408   7.140
10619  LAT   Au11159   6.120   0.408   6.936
10620  LAT   Au11160   6.324   0.612   6.936
10621  LAT   Au11161   6.120   0.612   7.140
10622  LAT   Au11162   6.324   0.408   7.140
10623  LAT   Au11163   6.528   0.408   6.936
10624  LAT   Au11164   6.732   0.612   6.936
10625  LAT   Au11165   6.528   0.612   7.140
10626  LAT   Au11166   6.732   0.408   7.140
10627  LAT   Au11167   6.936   0.408   6.936
10628  LAT   Au11168   7.140   0.612   6.936
10629  LAT   Au11169   6.936   0.612   7.140
10630  LAT   Au11170   7.140   0.408   7.140
10631  LAT   Au11171   0.000   0.816   6.936
10632  LAT   Au11172   0.204   1.020   6.936
10633  LAT   Au11173   0.000   1.020   7.140
10634  LAT   Au11174   0.204   0.816   7.140
10635  LAT   Au11175   0.408   0.816   6.936
10636  LAT   Au11176   0.612   1.020   6.936
10637  LAT   Au11177   0.408   1.020   7.140
10638  LAT   Au11178   0.612   0.816   7.140
10639  LAT   Au11179   0.816   0.816   6.936
10640  LAT   Au11180   1.020   1.020   6.936
10641  LAT   Au11181   0.816   1.020   7.140
10642  LAT   Au11182   1.020   0.816   7.140
10643  LAT   Au11183   1.224   0.816   6.936
10644  LAT   Au11184   1.428   1.020   6.936
10645  LAT   Au11185   1.224   1.020   7.140
10646  LAT   Au11186   1.428   0.816   7.140
10647  LAT   Au11187   1.632   0.816   6.936
10648  LAT   Au11188   1.836   1.020   6.936
10649  LAT   Au11189   1.632   1.020   7.140
10650  LAT   Au11190   1.836   0.816   7.140
10651  LAT   Au11191   2.040   0.816   6.936
10652  LAT   Au11192   2.040   1.020   7.140
10653  LAT   Au11193   2.244   0.816   7.140
10654  LAT   Au11194   2.448   0.816   6.936
10655  LAT   Au11195   4.896   0.816   6.936
10656  LAT   Au11196   5.100   0.816   7.140
10657  LAT   Au11197   5.304   0.816   6.936
10658  LAT   Au11198   5.508   1.020   6.936
10659  LAT   Au11199   5.304   1.020   7.140
10660  LAT   Au11200   5.508   0.816   7.140
10661  LAT   Au11201   5.712   0.816   6.936
10662  LAT   Au11202   5.916   1.020   6.936
10663  LAT   Au11203   5.712   1.020   7.140
10664  LAT   Au11204   5.916   0.816   7.140
10665  LAT   Au11205   6.120   0.816   6.936
10666  LAT   Au11206   6.324   1.020   6.936
10667  LAT   Au11207   6.120   1.020   7.140
10668  LAT   Au11208   6.324   0.816   7.140
10669  LAT   Au11209   6.528   0.816   6.936
10670  LAT   Au11210   6.732   1.020   6.936
10671  LAT   Au11211   6.528   1.020   7.140
10672  LAT   Au11212   6.732   0.816   7.140
10673  LAT   Au11213   6.936   0.816   6.936
10674  LAT   Au11214   7.140   1.020   6.936
10675  LAT   Au11215   6.936   1.020   7.140
10676  LAT   Au11216   7.140   0.816   7.140
10677  LAT   Au11217   0.000   1.224   6.936
10678  LAT   Au11218   0.204   1.428   6.936
10679  LAT   Au11219   0.000   1.428   7.140
10680  LAT   Au11220   0.204   1.224   7.140
10681  LAT   Au11221   0.408   1.224   6.936
10682  LAT   Au11222   0.612   1.428   6.936
10683  LAT   Au11223   0.408   1.428   7.140
10684  LAT   Au11224   0.612   1.224   7.140
10685  LAT   Au11225   0.816   1.224   6.936
10686  LAT   Au11226   1.020   1.428   6.936
10687  LAT   Au11227   0.816   1.428   7.140
10688  LAT   Au11228   1.020   1.224   7.140
10689  LAT   Au11229   1.224   1.224   6.936
10690  LAT   Au11230   1.428   1.428   6.936
10691  LAT   Au11231   1.224   1.428   7.140
10692  LAT   Au11232   1.428   1.224   7.140
10693  LAT   Au11233   1.632   1.224   6.936
10694  LAT   Au11234   5.508   1.224   7.140
10695  LAT   Au11235   5.712   1.224   6.936
10696  LAT   Au11236   5.916   1.428   6.936
10697  LAT   Au11237   5.712   1.428   7.140
10698  LAT   Au11238   5.916   1.224   7.140
10699  LAT   Au11239   6.120   1.224   6.936
10700  LAT   Au11240   6.324   1.428   6.936
10701  LAT   Au11241   6.120   1.428   7.140
10702  LAT   Au11242   6.324   1.224   7.140
10703  LAT   Au11243   6.528   1.224   6.936
10704  LAT   Au11244   6.732   1.428   6.936
10705  LAT   Au11245   6.528   1.428   7.140
10706  LAT   Au11246   6.732   1.224   7.140
10707  LAT   Au11247   6.936   1.224   6.936
10708  LAT   Au11248   7.140   1.428   6.936
10709  LAT   Au11249   6.936   1.428   7.140
10710  LAT   Au11250   7.140   1.224   7.140
10711  LAT   Au11251   0.000   1.632   6.936
10712  LAT   Au11252   0.204   1.836   6.936
10713  LAT   Au11253   0.000   1.836   7.140
10714  LAT   Au11254   0.204   1.632   7.140
10715  LAT   Au11255   0.408   1.632   6.936
10716  LAT   Au11256   0.612   1.836   6.936
10717  LAT   Au11257   0.408   1.836   7.140
10718  LAT   Au11258   0.612   1.632   7.140
10719  LAT   Au11259   0.816   1.632   6.936
10720  LAT   Au11260   1.020   1.836   6.936
10721  LAT   Au11261   0.816   1.836   7.140
10722  LAT   Au11262   1.020   1.632   7.140
10723  LAT   Au11263   1.224   1.632   6.936
10724  LAT   Au11264   5.916   1.632   7.140
10725  LAT   Au11265   6.120   1.632   6.936
10726  LAT   Au11266   6.324   1.836   6.936
10727  LAT   Au11267   6.120   1.836   7.140
10728  LAT   Au11268   6.324   1.632   7.140
10729  LAT   Au11269   6.528   1.632   6.936
10730  LAT   Au11270   6.732   1.836   6.936
10731  LAT   Au11271   6.528   1.836   7.140
10732  LAT   Au11272   6.732   1.632   7.140
10733  LAT   Au11273   6.936   1.632   6.936
10734  LAT   Au11274   7.140   1.836   6.936
10735  LAT   Au11275   6.936   1.836   7.140
10736  LAT   Au11276   7.140   1.632   7.140
10737  LAT   Au11277   0.000   2.040   6.936
10738  LAT   Au11278   0.204   2.244   6.936
10739  LAT   Au11279   0.000   2.244   7.140
10740  LAT   Au11280   0.204   2.040   7.140
10741  LAT   Au11281   0.408   2.040   6.936
10742  LAT   Au11282   0.612   2.244   6.936
10743  LAT   Au11283   0.408   2.244   7.140
10744  LAT   Au11284   0.612   2.040   7.140
10745  LAT   Au11285   0.816   2.040   6.936
10746  LAT   Au11286   0.816   2.244   7.140
10747  LAT   Au11287   1.020   2.040   7.140
10748  LAT   Au11288   6.324   2.244   6.936
10749  LAT   Au11289   6.324   2.040   7.140
10750  LAT   Au11290   6.528   2.040   6.936
10751  LAT   Au11291   6.732   2.244   6.936
10752  LAT   Au11292   6.528   2.244   7.140
10753  LAT   Au11293   6.732   2.040   7.140
10754  LAT   Au11294   6.936   2.040   6.936
10755  LAT   Au11295   7.140   2.244   6.936
10756  LAT   Au11296   6.936   2.244   7.140
10757  LAT   Au11297   7.140   2.040   7.140
10758  LAT   Au11298   0.000   2.448   6.936
10759  LAT   Au11299   0.204   2.652   6.936
10760  LAT   Au11300   0.000   2.652   7.140
10761  LAT   Au11301   0.204   2.448   7.140
10762  LAT   Au11302   0.408   2.448   6.936
10763  LAT   Au11303   0.612   2.652   6.936
10764  LAT   Au11304   0.408   2.652   7.140
10765  LAT   Au11305   0.612   2.448   7.140
10766  LAT   Au11306   0.816   2.448   6.936
10767  LAT   Au11307   6.528   2.448   6.936
10768  LAT   Au11308   6.732   2.652   6.936
10769  LAT   Au11309   6.528   2.652   7.140
10770  LAT   Au11310   6.732   2.448   7.140
10771  LAT   Au11311   6.936   2.448   6.936
10772  LAT   Au11312   7.140   2.652   6.936
10773  LAT   Au11313   6.936   2.652   7.140
10774  LAT   Au11314   7.140   2.448   7.140
10775  LAT   Au11315   0.000   2.856   6.936
10776  LAT   Au11316   0.204   3.060   6.936
10777  LAT   Au11317   0.000   3.060   7.140
10778  LAT   Au11318   0.204   2.856   7.140
10779  LAT   Au11319   0.408   2.856   6.936
10780  LAT   Au11320   0.612   3.060   6.936
10781  LAT   Au11321   0.408   3.060   7.140
10782  LAT   Au11322   0.612   2.856   7.140
10783  LAT   Au11323   6.528   2.856   6.936
10784  LAT   Au11324   6.732   3.060   6.936
10785  LAT   Au11325   6.732   2.856   7.140
10786  LAT   Au11326   6.936   2.856   6.936
10787  LAT   Au11327   7.140   3.060   6.936
10788  LAT   Au11328   6.936   3.060   7.140
10789  LAT   Au11329   7.140   2.856   7.140
10790  LAT   Au11330   0.000   3.264   6.936
10791  LAT   Au11331   0.204   3.468   6.936
10792  LAT   Au11332   0.000   3.468   7.140
10793  LAT   Au11333   0.204   3.264   7.140
10794  LAT   Au11334   0.408   3.264   6.936
10795  LAT   Au11335   0.408   3.468   7.140
10796  LAT   Au11336   0.612   3.264   7.140
10797  LAT   Au11337   6.732   3.468   6.936
10798  LAT   Au11338   6.732   3.264   7.140
10799  LAT   Au11339   6.936   3.264   6.936
10800  LAT   Au11340   7.140   3.468   6.936
10801  LAT   Au11341   6.936   3.468   7.140
10802  LAT   Au11342   7.140   3.264   7.140
10803  LAT   Au11343   0.000   3.672   6.936
10804  LAT   Au11344   0.204   3.876   6.936
10805  LAT   Au11345   0.000   3.876   7.140
10806  LAT   Au11346   0.204   3.672   7.140
10807  LAT   Au11347   0.408   3.672   6.936
10808  LAT   Au11348   0.408   3.876   7.140
10809  LAT   Au11349   6.732   3.876   6.936
10810  LAT   Au11350   6.732   3.672   7.140
10811  LAT   Au11351   6.936   3.672   6.936
10812  LAT   Au11352   7.140   3.876   6.936
10813  LAT   Au11353   6.936   3.876   7.140
10814  LAT   Au11354   7.140   3.672   7.140
10815  LAT   Au11355   0.000   4.080   6.936
10816  LAT   Au11356   0.204   4.284   6.936
10817  LAT   Au11357   0.000   4.284   7.140
10818  LAT   Au11358   0.204   4.080   7.140
10819  LAT   Au11359   0.408   4.080   6.936
10820  LAT   Au11360   0.612   4.284   6.936
10821  LAT   Au11361   0.408   4.284   7.140
10822  LAT   Au11362   0.612   4.080   7.140
10823  LAT   Au11363   6.732   4.284   6.936
10824  LAT   Au11364   6.528   4.284   7.140
10825  LAT   Au11365   6.732   4.080   7.140
10826  LAT   Au11366   6.936   4.080   6.936
10827  LAT   Au11367   7.140   4.284   6.936
10828  LAT   Au11368   6.936   4.284   7.140
10829  LAT   Au11369   7.140   4.080   7.140
10830  LAT   Au11370   0.000   4.488   6.936
10831  LAT   Au11371   0.204   4.692   6.936
10832  LAT   Au11372   0.000   4.692   7.140
10833  LAT   Au11373   0.204   4.488   7.140
10834  LAT   Au11374   0.408   4.488   6.936
10835  LAT   Au11375   0.612   4.692   6.936
10836  LAT   Au11376   0.408   4.692   7.140
10837  LAT   Au11377   0.612   4.488   7.140
10838  LAT   Au11378   6.528   4.488   6.936
10839  LAT   Au11379   6.732   4.692   6.936
10840  LAT   Au11380   6.528   4.692   7.140
10841  LAT   Au11381   6.732   4.488   7.140
10842  LAT   Au11382   6.936   4.488   6.936
10843  LAT   Au11383   7.140   4.692   6.936
10844  LAT   Au11384   6.936   4.692   7.140
10845  LAT   Au11385   7.140   4.488   7.140
10846  LAT   Au11386   0.000   4.896   6.936
10847  LAT   Au11387   0.204   5.100   6.936
10848  LAT   Au11388   0.000   5.100   7.140
10849  LAT   Au11389   0.204   4.896   7.140
10850  LAT   Au11390   0.408   4.896   6.936
10851  LAT   Au11391   0.612   5.100   6.936
10852  LAT   Au11392   0.408   5.100   7.140
10853  LAT   Au11393   0.612   4.896   7.140
10854  LAT   Au11394   0.816   4.896   6.936
10855  LAT   Au11395   0.816   5.100   7.140
10856  LAT   Au11396   6.324   5.100   6.936
10857  LAT   Au11397   6.324   4.896   7.140
10858  LAT   Au11398   6.528   4.896   6.936
10859  LAT   Au11399   6.732   5.100   6.936
10860  LAT   Au11400   6.528   5.100   7.140
10861  LAT   Au11401   6.732   4.896   7.140
10862  LAT   Au11402   6.936   4.896   6.936
10863  LAT   Au11403   7.140   5.100   6.936
10864  LAT   Au11404   6.936   5.100   7.140
10865  LAT   Au11405   7.140   4.896   7.140
10866  LAT   Au11406   0.000   5.304   6.936
10867  LAT   Au11407   0.204   5.508   6.936
10868  LAT   Au11408   0.000   5.508   7.140
10869  LAT   Au11409   0.204   5.304   7.140
10870  LAT   Au11410   0.408   5.304   6.936
10871  LAT   Au11411   0.612   5.508   6.936
10872  LAT   Au11412   0.408   5.508   7.140
10873  LAT   Au11413   0.612   5.304   7.140
10874  LAT   Au11414   0.816   5.304   6.936
10875  LAT   Au11415   1.020   5.508   6.936
10876  LAT   Au11416   0.816   5.508   7.140
10877  LAT   Au11417   1.020   5.304   7.140
10878  LAT   Au11418   1.224   5.508   7.140
10879  LAT   Au11419   5.916   5.508   6.936
10880  LAT   Au11420   6.120   5.304   6.936
10881  LAT   Au11421   6.324   5.508   6.936
10882  LAT   Au11422   6.120   5.508   7.140
10883  LAT   Au11423   6.324   5.304   7.140
10884  LAT   Au11424   6.528   5.304   6.936
10885  LAT   Au11425   6.732   5.508   6.936
10886  LAT   Au11426   6.528   5.508   7.140
10887  LAT   Au11427   6.732   5.304   7.140
10888  LAT   Au11428   6.936   5.304   6.936
10889  LAT   Au11429   7.140   5.508   6.936
10890  LAT   Au11430   6.936   5.508   7.140
10891  LAT   Au11431   7.140   5.304   7.140
10892  LAT   Au11432   0.000   5.712   6.936
10893  LAT   Au11433   0.204   5.916   6.936
10894  LAT   Au11434   0.000   5.916   7.140
10895  LAT   Au11435   0.204   5.712   7.140
10896  LAT   Au11436   0.408   5.712   6.936
10897  LAT   Au11437   0.612   5.916   6.936
10898  LAT   Au11438   0.408   5.916   7.140
10899  LAT   Au11439   0.612   5.712   7.140
10900  LAT   Au11440   0.816   5.712   6.936
10901  LAT   Au11441   1.020   5.916   6.936
10902  LAT   Au11442   0.816   5.916   7.140
10903  LAT   Au11443   1.020   5.712   7.140
10904  LAT   Au11444   1.224   5.712   6.936
10905  LAT   Au11445   1.428   5.916   6.936
10906  LAT   Au11446   1.224   5.916   7.140
10907  LAT   Au11447   1.428   5.712   7.140
10908  LAT   Au11448   1.632   5.916   7.140
10909  LAT   Au11449   5.508   5.916   6.936
10910  LAT   Au11450   5.916   5.916   6.936
10911  LAT   Au11451   5.712   5.916   7.140
10912  LAT   Au11452   5.916   5.712   7.140
10913  LAT   Au11453   6.120   5.712   6.936
10914  LAT   Au11454   6.324   5.916   6.936
10915  LAT   Au11455   6.120   5.916   7.140
10916  LAT   Au11456   6.324   5.712   7.140
10917  LAT   Au11457   6.528   5.712   6.936
10918  LAT   Au11458   6.732   5.916   6.936
10919  LAT   Au11459   6.528   5.916   7.140
10920  LAT   Au11460   6.732   5.712   7.140
10921  LAT   Au11461   6.936   5.712   6.936
10922  LAT   Au11462   7.140   5.916   6.936
10923  LAT   Au11463   6.936   5.916   7.140
10924  LAT   Au11464   7.140   5.712   7.140
10925  LAT   Au11465   0.000   6.120   6.936
10926  LAT   Au11466   0.204   6.324   6.936
10927  LAT   Au11467   0.000   6.324   7.140
10928  LAT   Au11468   0.204   6.120   7.140
10929  LAT   Au11469   0.408   6.120   6.936
10930  LAT   Au11470   0.612   6.324   6.936
10931  LAT   Au11471   0.408   6.324   7.140
10932  LAT   Au11472   0.612   6.120   7.140
10933  LAT   Au11473   0.816   6.120   6.936
10934  LAT   Au11474   1.020   6.324   6.936
10935  LAT   Au11475   0.816   6.324   7.140
10936  LAT   Au11476   1.020   6.120   7.140
10937  LAT   Au11477   1.224   6.120   6.936
10938  LAT   Au11478   1.428   6.324   6.936
10939  LAT   Au11479   1.224   6.324   7.140
10940  LAT   Au11480   1.428   6.120   7.140
10941  LAT   Au11481   1.632   6.120   6.936
10942  LAT   Au11482   1.836   6.324   6.936
10943  LAT   Au11483   1.632   6.324   7.140
10944  LAT   Au11484   1.836   6.120   7.140
10945  LAT   Au11485   2.244   6.324   6.936
10946  LAT   Au11486   2.040   6.324   7.140
10947  LAT   Au11487   5.100   6.324   6.936
10948  LAT   Au11488   4.896   6.324   7.140
10949  LAT   Au11489   5.304   6.120   6.936
10950  LAT   Au11490   5.508   6.324   6.936
10951  LAT   Au11491   5.304   6.324   7.140
10952  LAT   Au11492   5.508   6.120   7.140
10953  LAT   Au11493   5.712   6.120   6.936
10954  LAT   Au11494   5.916   6.324   6.936
10955  LAT   Au11495   5.712   6.324   7.140
10956  LAT   Au11496   5.916   6.120   7.140
10957  LAT   Au11497   6.120   6.120   6.936
10958  LAT   Au11498   6.324   6.324   6.936
10959  LAT   Au11499   6.120   6.324   7.140
10960  LAT   Au11500   6.324   6.120   7.140
10961  LAT   Au11501   6.528   6.120   6.936
10962  LAT   Au11502   6.732   6.324   6.936
10963  LAT   Au11503   6.528   6.324   7.140
10964  LAT   Au11504   6.732   6.120   7.140
10965  LAT   Au11505   6.936   6.120   6.936
10966  LAT   Au11506   7.140   6.324   6.936
10967  LAT   Au11507   6.936   6.324   7.140
10968  LAT   Au11508   7.140   6.120   7.140
10969  LAT   Au11509   0.000   6.528   6.936
10970  LAT   Au11510   0.204   6.732   6.936
10971  LAT   Au11511   0.000   6.732   7.140
10972  LAT   Au11512   0.204   6.528   7.140
10973  LAT   Au11513   0.408   6.528   6.936
10974  LAT   Au11514   0.612   6.732   6.936
10975  LAT   Au11515   0.408   6.732   7.140
10976  LAT   Au11516   0.612   6.528   7.140
10977  LAT   Au11517   0.816   6.528   6.936
10978  LAT   Au11518   1.020   6.732   6.936
10979  LAT   Au11519   0.816   6.732   7.140
10980  LAT   Au11520   1.020   6.528   7.140
10981  LAT   Au11521   1.224   6.528   6.936
10982  LAT   Au11522   1.428   6.732   6.936
10983  LAT   Au11523   1.224   6.732   7.140
10984  LAT   Au11524   1.428   6.528   7.140
10985  LAT   Au11525   1.632   6.528   6.936
10986  LAT   Au11526   1.836   6.732   6.936
10987  LAT   Au11527   1.632   6.732   7.140
10988  LAT   Au11528   1.836   6.528   7.140
10989  LAT   Au11529   2.040   6.528   6.936
10990  LAT   Au11530   2.244   6.732   6.936
10991  LAT   Au11531   2.040   6.732   7.140
10992  LAT   Au11532   2.244   6.528   7.140
10993  LAT   Au11533   2.448   6.528   6.936
10994  LAT   Au11534   2.652   6.732   6.936
10995  LAT   Au11535   2.448   6.732   7.140
10996  LAT   Au11536   2.652   6.528   7.140
10997  LAT   Au11537   2.856   6.528   6.936
10998  LAT   Au11538   3.060   6.732   6.936
10999  LAT   Au11539   2.856   6.732   7.140
11000  LAT   Au11540   3.468   6.732   6.936
11001  LAT   Au11541   3.264   6.732   7.140
11002  LAT   Au11542   3.876   6.732   6.936
11003  LAT   Au11543   3.672   6.732   7.140
11004  LAT   Au11544   4.284   6.732   6.936
11005  LAT   Au11545   4.080   6.732   7.140
11006  LAT   Au11546   4.284   6.528   7.140
11007  LAT   Au11547   4.488   6.528   6.936
11008  LAT   Au11548   4.692   6.732   6.936
11009  LAT   Au11549   4.488   6.732   7.140
11010  LAT   Au11550   4.692   6.528   7.140
11011  LAT   Au11551   4.896   6.528   6.936
11012  LAT   Au11552   5.100   6.732   6.936
11013  LAT   Au11553   4.896   6.732   7.140
11014  LAT   Au11554   5.100   6.528   7.140
11015  LAT   Au11555   5.304   6.528   6.936
11016  LAT   Au11556   5.508   6.732   6.936
11017  LAT   Au11557   5.304   6.732   7.140
11018  LAT   Au11558   5.508   6.528   7.140
11019  LAT   Au11559   5.712   6.528   6.936
11020  LAT   Au11560   5.916   6.732   6.936
11021  LAT   Au11561   5.712   6.732   7.140
11022  LAT   Au11562   5.916   6.528   7.140
11023  LAT   Au11563   6.120   6.528   6.936
11024  LAT   Au11564   6.324   6.732   6.936
11025  LAT   Au11565   6.120   6.732   7.140
11026  LAT   Au11566   6.324   6.528   7.140
11027  LAT   Au11567   6.528   6.528   6.936
11028  LAT   Au11568   6.732   6.732   6.936
11029  LAT   Au11569   6.528   6.732   7.140
11030  LAT   Au11570   6.732   6.528   7.140
11031  LAT   Au11571   6.936   6.528   6.936
11032  LAT   Au11572   7.140   6.732   6.936
11033  LAT   Au11573   6.936   6.732   7.140
11034  LAT   Au11574   7.140   6.528   7.140
11035  LAT   Au11575   0.000   6.936   6.936
11036  LAT   Au11576   0.204   7.140   6.936
11037  LAT   Au11577   0.000   7.140   7.140
11038  LAT   Au11578   0.204   6.936   7.140
11039  LAT   Au11579   0.408   6.936   6.936
11040  LAT   Au11580   0.612   7.140   6.936
11041  LAT   Au11581   0.408   7.140   7.140
11042  LAT   Au11582   0.612   6.936   7.140
11043  LAT   Au11583   0.816   6.936   6.936
11044  LAT   Au11584   1.020   7.140   6.936
11045  LAT   Au11585   0.816   7.140   7.140
11046  LAT   Au11586   1.020   6.936   7.140
11047  LAT   Au11587   1.224   6.936   6.936
11048  LAT   Au11588   1.428   7.140   6.936
11049  LAT   Au11589   1.224   7.140   7.140
11050  LAT   Au11590   1.428   6.936   7.140
11051  LAT   Au11591   1.632   6.936   6.936
11052  LAT   Au11592   1.836   7.140   6.936
11053  LAT   Au11593   1.632   7.140   7.140
11054  LAT   Au11594   1.836   6.936   7.140
11055  LAT   Au11595   2.040   6.936   6.936
11056  LAT   Au11596   2.244   7.140   6.936
11057  LAT   Au11597   2.040   7.140   7.140
11058  LAT   Au11598   2.244   6.936   7.140
11059  LAT   Au11599   2.448   6.936   6.936
11060  LAT   Au11600   2.652   7.140   6.936
11061  LAT   Au11601   2.448   7.140   7.140
11062  LAT   Au11602   2.652   6.936   7.140
11063  LAT   Au11603   2.856   6.936   6.936
11064  LAT   Au11604   3.060   7.140   6.936
11065  LAT   Au11605   2.856   7.140   7.140
11066  LAT   Au11606   3.060   6.936   7.140
11067  LAT   Au11607   3.264   6.936   6.936
11068  LAT   Au11608   3.468   7.140   6.936
11069  LAT   Au11609   3.264   7.140   7.140
11070  LAT   Au11610   3.468   6.936   7.140
11071  LAT   Au11611   3.672   6.936   6.936
11072  LAT   Au11612   3.876   7.140   6.936
11073  LAT   Au11613   3.672   7.140   7.140
11074  LAT   Au11614   3.876   6.936   7.140
11075  LAT   Au11615   4.080   6.936   6.936
11076  LAT   Au11616   4.284   7.140   6.936
11077  LAT   Au11617   4.080   7.140   7.140
11078  LAT   Au11618   4.284   6.936   7.140
11079  LAT   Au11619   4.488   6.936   6.936
11080  LAT   Au11620   4.692   7.140   6.936
11081  LAT   Au11621   4.488   7.140   7.140
11082  LAT   Au11622   4.692   6.936   7.140
11083  LAT   Au11623   4.896   6.936   6.936
11084  LAT   Au11624   5.100   7.140   6.936
11085  LAT   Au11625   4.896   7.140   7.140
11086  LAT   Au11626   5.100   6.936   7.140
11087  LAT   Au11627   5.304   6.936   6.936
11088  LAT   Au11628   5.508   7.140   6.936
11089  LAT   Au11629   5.304   7.140   7.140
11090  LAT   Au11630   5.508   6.936   7.140
11091  LAT   Au11631   5.712   6.936   6.936
11092  LAT   Au11632   5.916   7.140   6.936
11093  LAT   Au11633   5.712   7.140   7.140
11094  LAT   Au11634   5.916   6.936   7.140
11095  LAT   Au11635   6.120   6.936   6.936
11096  LAT   Au11636   6.324   7.140   6.936
11097  LAT   Au11637   6.120   7.140   7.140
11098  LAT   Au11638   6.324   6.936   7.140
11099  LAT   Au11639   6.528   6.936   6.936
11100  LAT   Au11640   6.732   7.140   6.936
11101  LAT   Au11641   6.528   7.140   7.140
11102  LAT   Au11642   6.732   6.936   7.140
11103  LAT   Au11643   6.936   6.936   6.936
11104  LAT   Au11644   7.140   7.140   6.936
11105  LAT   Au11645   6.936   7.140   7.140
11106  LAT   Au11646   7.140   6.936   7.140
11107  LAT   Au11647   0.000   0.000   7.344
11108  LAT   Au11648   0.204   0.204   7.344
11109  LAT   Au11649   0.000   0.204   7.548
11110  LAT   Au11650   0.204   0.000   7.548
11111  LAT   Au11651   0.408   0.000   7.344
11112  LAT   Au11652   0.612   0.204   7.344
11113  LAT   Au11653   0.408   0.204   7.548
11114  LAT   Au11654   0.612   0.000   7.548
11115  LAT   Au11655   0.816   0.000   7.344
11116  LAT   Au11656   1.020   0.204   7.344
11117  LAT   Au11657   0.816   0.204   7.548
11118  LAT   Au11658   1.020   0.000   7.548
11119  LAT   Au11659   1.224   0.000   7.344
11120  LAT   Au11660   1.428   0.204   7.344
11121  LAT   Au11661   1.224   0.204   7.548
11122  LAT   Au11662   1.428   0.000   7.548
11123  LAT   Au11663   1.632   0.000   7.344
11124  LAT   Au11664   1.836   0.204   7.344
11125  LAT   Au11665   1.632   0.204   7.548
11126  LAT   Au11666   1.836   0.000   7.548
11127  LAT   Au11667   2.040   0.000   7.344
11128  LAT   Au11668   2.244   0.204   7.344
11129  LAT   Au11669   2.040   0.204   7.548
11130  LAT   Au11670   2.244   0.000   7.548
11131  LAT   Au11671   2.448   0.000   7.344
11132  LAT   Au11672   2.652   0.204   7.344
11133  LAT   Au11673   2.448   0.204   7.548
11134  LAT   Au11674   2.652   0.000   7.548
11135  LAT   Au11675   2.856   0.000   7.344
11136  LAT   Au11676   3.060   0.204   7.344
11137  LAT   Au11677   2.856   0.204   7.548
11138  LAT   Au11678   3.060   0.000   7.548
11139  LAT   Au11679   3.264   0.000   7.344
11140  LAT   Au11680   3.468   0.204   7.344
11141  LAT   Au11681   3.264   0.204   7.548
11142  LAT   Au11682   3.468   0.000   7.548
11143  LAT   Au11683   3.672   0.000   7.344
11144  LAT   Au11684   3.876   0.204   7.344
11145  LAT   Au11685   3.672   0.204   7.548
11146  LAT   Au11686   3.876   0.000   7.548
11147  LAT   Au11687   4.080   0.000   7.344
11148  LAT   Au11688   4.284   0.204   7.344
11149  LAT   Au11689   4.080   0.204   7.548
11150  LAT   Au11690   4.284   0.000   7.548
11151  LAT   Au11691   4.488   0.000   7.344
11152  LAT   Au11692   4.692   0.204   7.344
11153  LAT   Au11693   4.488   0.204   7.548
11154  LAT   Au11694   4.692   0.000   7.548
11155  LAT   Au11695   4.896   0.000   7.344
11156  LAT   Au11696   5.100   0.204   7.344
11157  LAT   Au11697   4.896   0.204   7.548
11158  LAT   Au11698   5.100   0.000   7.548
11159  LAT   Au11699   5.304   0.000   7.344
11160  LAT   Au11700   5.508   0.204   7.344
11161  LAT   Au11701   5.304   0.204   7.548
11162  LAT   Au11702   5.508   0.000   7.548
11163  LAT   Au11703   5.712   0.000   7.344
11164  LAT   Au11704   5.916   0.204   7.344
11165  LAT   Au11705   5.712   0.204   7.548
11166  LAT   Au11706   5.916   0.000   7.548
11167  LAT   Au11707   6.120   0.000   7.344
11168  LAT   Au11708   6.324   0.204   7.344
11169  LAT   Au11709   6.120   0.204   7.548
11170  LAT   Au11710   6.324   0.000   7.548
11171  LAT   Au11711   6.528   0.000   7.344
11172  LAT   Au11712   6.732   0.204   7.344
11173  LAT   Au11713   6.528   0.204   7.548
11174  LAT   Au11714   6.732   0.000   7.548
11175  LAT   Au11715   6.936   0.000   7.344
11176  LAT   Au11716   7.140   0.204   7.344
11177  LAT   Au11717   6.936   0.204   7.548
11178  LAT   Au11718   7.140   0.000   7.548
11179  LAT   Au11719   0.000   0.408   7.344
11180  LAT   Au11720   0.204   0.612   7.344
11181  LAT   Au11721   0.000   0.612   7.548
11182  LAT   Au11722   0.204   0.408   7.548
11183  LAT   Au11723   0.408   0.408   7.344
11184  LAT   Au11724   0.612   0.612   7.344
11185  LAT   Au11725   0.408   0.612   7.548
11186  LAT   Au11726   0.612   0.408   7.548
11187  LAT   Au11727   0.816   0.408   7.344
11188  LAT   Au11728   1.020   0.612   7.344
11189  LAT   Au11729   0.816   0.612   7.548
11190  LAT   Au11730   1.020   0.408   7.548
11191  LAT   Au11731   1.224   0.408   7.344
11192  LAT   Au11732   1.428   0.612   7.344
11193  LAT   Au11733   1.224   0.612   7.548
11194  LAT   Au11734   1.428   0.408   7.548
11195  LAT   Au11735   1.632   0.408   7.344
11196  LAT   Au11736   1.836   0.612   7.344
11197  LAT   Au11737   1.632   0.612   7.548
11198  LAT   Au11738   1.836   0.408   7.548
11199  LAT   Au11739   2.040   0.408   7.344
11200  LAT   Au11740   2.244   0.612   7.344
11201  LAT   Au11741   2.040   0.612   7.548
11202  LAT   Au11742   2.244   0.408   7.548
11203  LAT   Au11743   2.448   0.408   7.344
11204  LAT   Au11744   2.652   0.612   7.344
11205  LAT   Au11745   2.448   0.612   7.548
11206  LAT   Au11746   2.652   0.408   7.548
11207  LAT   Au11747   2.856   0.408   7.344
11208  LAT   Au11748   3.060   0.612   7.344
11209  LAT   Au11749   2.856   0.612   7.548
11210  LAT   Au11750   3.060   0.408   7.548
11211  LAT   Au11751   3.264   0.408   7.344
11212  LAT   Au11752   3.264   0.612   7.548
11213  LAT   Au11753   3.468   0.408   7.548
11214  LAT   Au11754   3.672   0.408   7.344
11215  LAT   Au11755   3.876   0.408   7.548
11216  LAT   Au11756   4.080   0.408   7.344
11217  LAT   Au11757   4.284   0.612   7.344
11218  LAT   Au11758   4.080   0.612   7.548
11219  LAT   Au11759   4.284   0.408   7.548
11220  LAT   Au11760   4.488   0.408   7.344
11221  LAT   Au11761   4.692   0.612   7.344
11222  LAT   Au11762   4.488   0.612   7.548
11223  LAT   Au11763   4.692   0.408   7.548
11224  LAT   Au11764   4.896   0.408   7.344
11225  LAT   Au11765   5.100   0.612   7.344
11226  LAT   Au11766   4.896   0.612   7.548
11227  LAT   Au11767   5.100   0.408   7.548
11228  LAT   Au11768   5.304   0.408   7.344
11229  LAT   Au11769   5.508   0.612   7.344
11230  LAT   Au11770   5.304   0.612   7.548
11231  LAT   Au11771   5.508   0.408   7.548
11232  LAT   Au11772   5.712   0.408   7.344
11233  LAT   Au11773   5.916   0.612   7.344
11234  LAT   Au11774   5.712   0.612   7.548
11235  LAT   Au11775   5.916   0.408   7.548
11236  LAT   Au11776   6.120   0.408   7.344
11237  LAT   Au11777   6.324   0.612   7.344
11238  LAT   Au11778   6.120   0.612   7.548
11239  LAT   Au11779   6.324   0.408   7.548
11240  LAT   Au11780   6.528   0.408   7.344
11241  LAT   Au11781   6.732   0.612   7.344
11242  LAT   Au11782   6.528   0.612   7.548
11243  LAT   Au11783   6.732   0.408   7.548
11244  LAT   Au11784   6.936   0.408   7.344
11245  LAT   Au11785   7.140   0.612   7.344
11246  LAT   Au11786   6.936   0.612   7.548
11247  LAT   Au11787   7.140   0.408   7.548
11248  LAT   Au11788   0.000   0.816   7.344
11249  LAT   Au11789   0.204   1.020   7.344
11250  LAT   Au11790   0.000   1.020   7.548
11251  LAT   Au11791   0.204   0.816   7.548
11252  LAT   Au11792   0.408   0.816   7.344
11253  LAT   Au11793   0.612   1.020   7.344
11254  LAT   Au11794   0.408   1.020   7.548
11255  LAT   Au11795   0.612   0.816   7.548
11256  LAT   Au11796   0.816   0.816   7.344
11257  LAT   Au11797   1.020   1.020   7.344
11258  LAT   Au11798   0.816   1.020   7.548
11259  LAT   Au11799   1.020   0.816   7.548
11260  LAT   Au11800   1.224   0.816   7.344
11261  LAT   Au11801   1.428   1.020   7.344
11262  LAT   Au11802   1.224   1.020   7.548
11263  LAT   Au11803   1.428   0.816   7.548
11264  LAT   Au11804   1.632   0.816   7.344
11265  LAT   Au11805   1.836   1.020   7.344
11266  LAT   Au11806   1.632   1.020   7.548
11267  LAT   Au11807   1.836   0.816   7.548
11268  LAT   Au11808   2.040   0.816   7.344
11269  LAT   Au11809   2.040   1.020   7.548
11270  LAT   Au11810   2.244   0.816   7.548
11271  LAT   Au11811   2.448   0.816   7.344
11272  LAT   Au11812   4.896   0.816   7.344
11273  LAT   Au11813   5.100   0.816   7.548
11274  LAT   Au11814   5.304   0.816   7.344
11275  LAT   Au11815   5.508   1.020   7.344
11276  LAT   Au11816   5.304   1.020   7.548
11277  LAT   Au11817   5.508   0.816   7.548
11278  LAT   Au11818   5.712   0.816   7.344
11279  LAT   Au11819   5.916   1.020   7.344
11280  LAT   Au11820   5.712   1.020   7.548
11281  LAT   Au11821   5.916   0.816   7.548
11282  LAT   Au11822   6.120   0.816   7.344
11283  LAT   Au11823   6.324   1.020   7.344
11284  LAT   Au11824   6.120   1.020   7.548
11285  LAT   Au11825   6.324   0.816   7.548
11286  LAT   Au11826   6.528   0.816   7.344
11287  LAT   Au11827   6.732   1.020   7.344
11288  LAT   Au11828   6.528   1.020   7.548
11289  LAT   Au11829   6.732   0.816   7.548
11290  LAT   Au11830   6.936   0.816   7.344
11291  LAT   Au11831   7.140   1.020   7.344
11292  LAT   Au11832   6.936   1.020   7.548
11293  LAT   Au11833   7.140   0.816   7.548
11294  LAT   Au11834   0.000   1.224   7.344
11295  LAT   Au11835   0.204   1.428   7.344
11296  LAT   Au11836   0.000   1.428   7.548
11297  LAT   Au11837   0.204   1.224   7.548
11298  LAT   Au11838   0.408   1.224   7.344
11299  LAT   Au11839   0.612   1.428   7.344
11300  LAT   Au11840   0.408   1.428   7.548
11301  LAT   Au11841   0.612   1.224   7.548
11302  LAT   Au11842   0.816   1.224   7.344
11303  LAT   Au11843   1.020   1.428   7.344
11304  LAT   Au11844   0.816   1.428   7.548
11305  LAT   Au11845   1.020   1.224   7.548
11306  LAT   Au11846   1.224   1.224   7.344
11307  LAT   Au11847   1.428   1.428   7.344
11308  LAT   Au11848   1.224   1.428   7.548
11309  LAT   Au11849   1.428   1.224   7.548
11310  LAT   Au11850   1.632   1.224   7.344
11311  LAT   Au11851   5.508   1.224   7.548
11312  LAT   Au11852   5.712   1.224   7.344
11313  LAT   Au11853   5.916   1.428   7.344
11314  LAT   Au11854   5.712   1.428   7.548
11315  LAT   Au11855   5.916   1.224   7.548
11316  LAT   Au11856   6.120   1.224   7.344
11317  LAT   Au11857   6.324   1.428   7.344
11318  LAT   Au11858   6.120   1.428   7.548
11319  LAT   Au11859   6.324   1.224   7.548
11320  LAT   Au11860   6.528   1.224   7.344
11321  LAT   Au11861   6.732   1.428   7.344
11322  LAT   Au11862   6.528   1.428   7.548
11323  LAT   Au11863   6.732   1.224   7.548
11324  LAT   Au11864   6.936   1.224   7.344
11325  LAT   Au11865   7.140   1.428   7.344
11326  LAT   Au11866   6.936   1.428   7.548
11327  LAT   Au11867   7.140   1.224   7.548
11328  LAT   Au11868   0.000   1.632   7.344
11329  LAT   Au11869   0.204   1.836   7.344
11330  LAT   Au11870   0.000   1.836   7.548
11331  LAT   Au11871   0.204   1.632   7.548
11332  LAT   Au11872   0.408   1.632   7.344
11333  LAT   Au11873   0.612   1.836   7.344
11334  LAT   Au11874   0.408   1.836   7.548
11335  LAT   Au11875   0.612   1.632   7.548
11336  LAT   Au11876   0.816   1.632   7.344
11337  LAT   Au11877   1.020   1.836   7.344
11338  LAT   Au11878   0.816   1.836   7.548
11339  LAT   Au11879   1.020   1.632   7.548
11340  LAT   Au11880   1.224   1.632   7.344
11341  LAT   Au11881   5.916   1.632   7.548
11342  LAT   Au11882   6.120   1.632   7.344
11343  LAT   Au11883   6.324   1.836   7.344
11344  LAT   Au11884   6.120   1.836   7.548
11345  LAT   Au11885   6.324   1.632   7.548
11346  LAT   Au11886   6.528   1.632   7.344
11347  LAT   Au11887   6.732   1.836   7.344
11348  LAT   Au11888   6.528   1.836   7.548
11349  LAT   Au11889   6.732   1.632   7.548
11350  LAT   Au11890   6.936   1.632   7.344
11351  LAT   Au11891   7.140   1.836   7.344
11352  LAT   Au11892   6.936   1.836   7.548
11353  LAT   Au11893   7.140   1.632   7.548
11354  LAT   Au11894   0.000   2.040   7.344
11355  LAT   Au11895   0.204   2.244   7.344
11356  LAT   Au11896   0.000   2.244   7.548
11357  LAT   Au11897   0.204   2.040   7.548
11358  LAT   Au11898   0.408   2.040   7.344
11359  LAT   Au11899   0.612   2.244   7.344
11360  LAT   Au11900   0.408   2.244   7.548
11361  LAT   Au11901   0.612   2.040   7.548
11362  LAT   Au11902   0.816   2.040   7.344
11363  LAT   Au11903   0.816   2.244   7.548
11364  LAT   Au11904   1.020   2.040   7.548
11365  LAT   Au11905   6.324   2.244   7.344
11366  LAT   Au11906   6.324   2.040   7.548
11367  LAT   Au11907   6.528   2.040   7.344
11368  LAT   Au11908   6.732   2.244   7.344
11369  LAT   Au11909   6.528   2.244   7.548
11370  LAT   Au11910   6.732   2.040   7.548
11371  LAT   Au11911   6.936   2.040   7.344
11372  LAT   Au11912   7.140   2.244   7.344
11373  LAT   Au11913   6.936   2.244   7.548
11374  LAT   Au11914   7.140   2.040   7.548
11375  LAT   Au11915   0.000   2.448   7.344
11376  LAT   Au11916   0.204   2.652   7.344
11377  LAT   Au11917   0.000   2.652   7.548
11378  LAT   Au11918   0.204   2.448   7.548
11379  LAT   Au11919   0.408   2.448   7.344
11380  LAT   Au11920   0.612   2.652   7.344
11381  LAT   Au11921   0.408   2.652   7.548
11382  LAT   Au11922   0.612   2.448   7.548
11383  LAT   Au11923   0.816   2.448   7.344
11384  LAT   Au11924   6.528   2.448   7.344
11385  LAT   Au11925   6.732   2.652   7.344
11386  LAT   Au11926   6.528   2.652   7.548
11387  LAT   Au11927   6.732   2.448   7.548
11388  LAT   Au11928   6.936   2.448   7.344
11389  LAT   Au11929   7.140   2.652   7.344
11390  LAT   Au11930   6.936   2.652   7.548
11391  LAT   Au11931   7.140   2.448   7.548
11392  LAT   Au11932   0.000   2.856   7.344
11393  LAT   Au11933   0.204   3.060   7.344
11394  LAT   Au11934   0.000   3.060   7.548
11395  LAT   Au11935   0.204   2.856   7.548
11396  LAT   Au11936   0.408   2.856   7.344
11397  LAT   Au11937   0.612   3.060   7.344
11398  LAT   Au11938   0.408   3.060   7.548
11399  LAT   Au11939   0.612   2.856   7.548
11400  LAT   Au11940   6.528   2.856   7.344
11401  LAT   Au11941   6.732   3.060   7.344
11402  LAT   Au11942   6.732   2.856   7.548
11403  LAT   Au11943   6.936   2.856   7.344
11404  LAT   Au11944   7.140   3.060   7.344
11405  LAT   Au11945   6.936   3.060   7.548
11406  LAT   Au11946   7.140   2.856   7.548
11407  LAT   Au11947   0.000   3.264   7.344
11408  LAT   Au11948   0.204   3.468   7.344
11409  LAT   Au11949   0.000   3.468   7.548
11410  LAT   Au11950   0.204   3.264   7.548
11411  LAT   Au11951   0.408   3.264   7.344
11412  LAT   Au11952   0.408   3.468   7.548
11413  LAT   Au11953   0.612   3.264   7.548
11414  LAT   Au11954   6.732   3.468   7.344
11415  LAT   Au11955   6.732   3.264   7.548
11416  LAT   Au11956   6.936   3.264   7.344
11417  LAT   Au11957   7.140   3.468   7.344
11418  LAT   Au11958   6.936   3.468   7.548
11419  LAT   Au11959   7.140   3.264   7.548
11420  LAT   Au11960   0.000   3.672   7.344
11421  LAT   Au11961   0.204   3.876   7.344
11422  LAT   Au11962   0.000   3.876   7.548
11423  LAT   Au11963   0.204   3.672   7.548
11424  LAT   Au11964   0.408   3.672   7.344
11425  LAT   Au11965   0.408   3.876   7.548
11426  LAT   Au11966   6.732   3.876   7.344
11427  LAT   Au11967   6.732   3.672   7.548
11428  LAT   Au11968   6.936   3.672   7.344
11429  LAT   Au11969   7.140   3.876   7.344
11430  LAT   Au11970   6.936   3.876   7.548
11431  LAT   Au11971   7.140   3.672   7.548
11432  LAT   Au11972   0.000   4.080   7.344
11433  LAT   Au11973   0.204   4.284   7.344
11434  LAT   Au11974   0.000   4.284   7.548
11435  LAT   Au11975   0.204   4.080   7.548
11436  LAT   Au11976   0.408   4.080   7.344
11437  LAT   Au11977   0.612   4.284   7.344
11438  LAT   Au11978   0.408   4.284   7.548
11439  LAT   Au11979   0.612   4.080   7.548
11440  LAT   Au11980   6.732   4.284   7.344
11441  LAT   Au11981   6.528   4.284   7.548
11442  LAT   Au11982   6.732   4.080   7.548
11443  LAT   Au11983   6.936   4.080   7.344
11444  LAT   Au11984   7.140   4.284   7.344
11445  LAT   Au11985   6.936   4.284   7.548
11446  LAT   Au11986   7.140   4.080   7.548
11447  LAT   Au11987   0.000   4.488   7.344
11448  LAT   Au11988   0.204   4.692   7.344
11449  LAT   Au11989   0.000   4.692   7.548
11450  LAT   Au11990   0.204   4.488   7.548
11451  LAT   Au11991   0.408   4.488   7.344
11452  LAT   Au11992   0.612   4.692   7.344
11453  LAT   Au11993   0.408   4.692   7.548
11454  LAT   Au11994   0.612   4.488   7.548
11455  LAT   Au11995   6.528   4.488   7.344
11456  LAT   Au11996   6.732   4.692   7.344
11457  LAT   Au11997   6.528   4.692   7.548
11458  LAT   Au11998   6.732   4.488   7.548
11459  LAT   Au11999   6.936   4.488   7.344
11460  LAT   Au12000   7.140   4.692   7.344
11461  LAT   Au12001   6.936   4.692   7.548
11462  LAT   Au12002   7.140   4.488   7.548
11463  LAT   Au12003   0.000   4.896   7.344
11464  LAT   Au12004   0.204   5.100   7.344
11465  LAT   Au12005   0.000   5.100   7.548
11466  LAT   Au12006   0.204   4.896   7.548
11467  LAT   Au12007   0.408   4.896   7.344
11468  LAT   Au12008   0.612   5.100   7.344
11469  LAT   Au12009   0.408   5.100   7.548
11470  LAT   Au12010   0.612   4.896   7.548
11471  LAT   Au12011   0.816   4.896   7.344
11472  LAT   Au12012   0.816   5.100   7.548
11473  LAT   Au12013   6.324   5.100   7.344
11474  LAT   Au12014   6.324   4.896   7.548
11475  LAT   Au12015   6.528   4.896   7.344
11476  LAT   Au12016   6.732   5.100   7.344
11477  LAT   Au12017   6.528   5.100   7.548
11478  LAT   Au12018   6.732   4.896   7.548
11479  LAT   Au12019   6.936   4.896   7.344
11480  LAT   Au12020   7.140   5.100   7.344
11481  LAT   Au12021   6.936   5.100   7.548
11482  LAT   Au12022   7.140   4.896   7.548
11483  LAT   Au12023   0.000   5.304   7.344
11484  LAT   Au12024   0.204   5.508   7.344
11485  LAT   Au12025   0.000   5.508   7.548
11486  LAT   Au12026   0.204   5.304   7.548
11487  LAT   Au12027   0.408   5.304   7.344
11488  LAT   Au12028   0.612   5.508   7.344
11489  LAT   Au12029   0.408   5.508   7.548
11490  LAT   Au12030   0.612   5.304   7.548
11491  LAT   Au12031   0.816   5.304   7.344
11492  LAT   Au12032   1.020   5.508   7.344
11493  LAT   Au12033   0.816   5.508   7.548
11494  LAT   Au12034   1.020   5.304   7.548
11495  LAT   Au12035   1.224   5.508   7.548
11496  LAT   Au12036   5.916   5.508   7.344
11497  LAT   Au12037   6.120   5.304   7.344
11498  LAT   Au12038   6.324   5.508   7.344
11499  LAT   Au12039   6.120   5.508   7.548
11500  LAT   Au12040   6.324   5.304   7.548
11501  LAT   Au12041   6.528   5.304   7.344
11502  LAT   Au12042   6.732   5.508   7.344
11503  LAT   Au12043   6.528   5.508   7.548
11504  LAT   Au12044   6.732   5.304   7.548
11505  LAT   Au12045   6.936   5.304   7.344
11506  LAT   Au12046   7.140   5.508   7.344
11507  LAT   Au12047   6.936   5.508   7.548
11508  LAT   Au12048   7.140   5.304   7.548
11509  LAT   Au12049   0.000   5.712   7.344
11510  LAT   Au12050   0.204   5.916   7.344
11511  LAT   Au12051   0.000   5.916   7.548
11512  LAT   Au12052   0.204   5.712   7.548
11513  LAT   Au12053   0.408   5.712   7.344
11514  LAT   Au12054   0.612   5.916   7.344
11515  LAT   Au12055   0.408   5.916   7.548
11516  LAT   Au12056   0.612   5.712   7.548
11517  LAT   Au12057   0.816   5.712   7.344
11518  LAT   Au12058   1.020   5.916   7.344
11519  LAT   Au12059   0.816   5.916   7.548
11520  LAT   Au12060   1.020   5.712   7.548
11521  LAT   Au12061   1.224   5.712   7.344
11522  LAT   Au12062   1.428   5.916   7.344
11523  LAT   Au12063   1.224   5.916   7.548
11524  LAT   Au12064   1.428   5.712   7.548
11525  LAT   Au12065   1.632   5.916   7.548
11526  LAT   Au12066   5.508   5.916   7.344
11527  LAT   Au12067   5.916   5.916   7.344
11528  LAT   Au12068   5.712   5.916   7.548
11529  LAT   Au12069   5.916   5.712   7.548
11530  LAT   Au12070   6.120   5.712   7.344
11531  LAT   Au12071   6.324   5.916   7.344
11532  LAT   Au12072   6.120   5.916   7.548
11533  LAT   Au12073   6.324   5.712   7.548
11534  LAT   Au12074   6.528   5.712   7.344
11535  LAT   Au12075   6.732   5.916   7.344
11536  LAT   Au12076   6.528   5.916   7.548
11537  LAT   Au12077   6.732   5.712   7.548
11538  LAT   Au12078   6.936   5.712   7.344
11539  LAT   Au12079   7.140   5.916   7.344
11540  LAT   Au12080   6.936   5.916   7.548
11541  LAT   Au12081   7.140   5.712   7.548
11542  LAT   Au12082   0.000   6.120   7.344
11543  LAT   Au12083   0.204   6.324   7.344
11544  LAT   Au12084   0.000   6.324   7.548
11545  LAT   Au12085   0.204   6.120   7.548
11546  LAT   Au12086   0.408   6.120   7.344
11547  LAT   Au12087   0.612   6.324   7.344
11548  LAT   Au12088   0.408   6.324   7.548
11549  LAT   Au12089   0.612   6.120   7.548
11550  LAT   Au12090   0.816   6.120   7.344
11551  LAT   Au12091   1.020   6.324   7.344
11552  LAT   Au12092   0.816   6.324   7.548
11553  LAT   Au12093   1.020   6.120   7.548
11554  LAT   Au12094   1.224   6.120   7.344
11555  LAT   Au12095   1.428   6.324   7.344
11556  LAT   Au12096   1.224   6.324   7.548
11557  LAT   Au12097   1.428   6.120   7.548
11558  LAT   Au12098   1.632   6.120   7.344
11559  LAT   Au12099   1.836   6.324   7.344
11560  LAT   Au12100   1.632   6.324   7.548
11561  LAT   Au12101   1.836   6.120   7.548
11562  LAT   Au12102   2.244   6.324   7.344
11563  LAT   Au12103   2.040   6.324   7.548
11564  LAT   Au12104   5.100   6.324   7.344
11565  LAT   Au12105   4.896   6.324   7.548
11566  LAT   Au12106   5.304   6.120   7.344
11567  LAT   Au12107   5.508   6.324   7.344
11568  LAT   Au12108   5.304   6.324   7.548
11569  LAT   Au12109   5.508   6.120   7.548
11570  LAT   Au12110   5.712   6.120   7.344
11571  LAT   Au12111   5.916   6.324   7.344
11572  LAT   Au12112   5.712   6.324   7.548
11573  LAT   Au12113   5.916   6.120   7.548
11574  LAT   Au12114   6.120   6.120   7.344
11575  LAT   Au12115   6.324   6.324   7.344
11576  LAT   Au12116   6.120   6.324   7.548
11577  LAT   Au12117   6.324   6.120   7.548
11578  LAT   Au12118   6.528   6.120   7.344
11579  LAT   Au12119   6.732   6.324   7.344
11580  LAT   Au12120   6.528   6.324   7.548
11581  LAT   Au12121   6.732   6.120   7.548
11582  LAT   Au12122   6.936   6.120   7.344
11583  LAT   Au12123   7.140   6.324   7.344
11584  LAT   Au12124   6.936   6.324   7.548
11585  LAT   Au12125   7.140   6.120   7.548
11586  LAT   Au12126   0.000   6.528   7.344
11587  LAT   Au12127   0.204   6.732   7.344
11588  LAT   Au12128   0.000   6.732   7.548
11589  LAT   Au12129   0.204   6.528   7.548
11590  LAT   Au12130   0.408   6.528   7.344
11591  LAT   Au12131   0.612   6.732   7.344
11592  LAT   Au12132   0.408   6.732   7.548
11593  LAT   Au12133   0.612   6.528   7.548
11594  LAT   Au12134   0.816   6.528   7.344
11595  LAT   Au12135   1.020   6.732   7.344
11596  LAT   Au12136   0.816   6.732   7.548
11597  LAT   Au12137   1.020   6.528   7.548
11598  LAT   Au12138   1.224   6.528   7.344
11599  LAT   Au12139   1.428   6.732   7.344
11600  LAT   Au12140   1.224   6.732   7.548
11601  LAT   Au12141   1.428   6.528   7.548
11602  LAT   Au12142   1.632   6.528   7.344
11603  LAT   Au12143   1.836   6.732   7.344
11604  LAT   Au12144   1.632   6.732   7.548
11605  LAT   Au12145   1.836   6.528   7.548
11606  LAT   Au12146   2.040   6.528   7.344
11607  LAT   Au12147   2.244   6.732   7.344
11608  LAT   Au12148   2.040   6.732   7.548
11609  LAT   Au12149   2.244   6.528   7.548
11610  LAT   Au12150   2.448   6.528   7.344
11611  LAT   Au12151   2.652   6.732   7.344
11612  LAT   Au12152   2.448   6.732   7.548
11613  LAT   Au12153   2.652   6.528   7.548
11614  LAT   Au12154   2.856   6.528   7.344
11615  LAT   Au12155   3.060   6.732   7.344
11616  LAT   Au12156   2.856   6.732   7.548
11617  LAT   Au12157   3.468   6.732   7.344
11618  LAT   Au12158   3.264   6.732   7.548
11619  LAT   Au12159   3.876   6.732   7.344
11620  LAT   Au12160   3.672   6.732   7.548
11621  LAT   Au12161   4.284   6.732   7.344
11622  LAT   Au12162   4.080   6.732   7.548
11623  LAT   Au12163   4.284   6.528   7.548
11624  LAT   Au12164   4.488   6.528   7.344
11625  LAT   Au12165   4.692   6.732   7.344
11626  LAT   Au12166   4.488   6.732   7.548
11627  LAT   Au12167   4.692   6.528   7.548
11628  LAT   Au12168   4.896   6.528   7.344
11629  LAT   Au12169   5.100   6.732   7.344
11630  LAT   Au12170   4.896   6.732   7.548
11631  LAT   Au12171   5.100   6.528   7.548
11632  LAT   Au12172   5.304   6.528   7.344
11633  LAT   Au12173   5.508   6.732   7.344
11634  LAT   Au12174   5.304   6.732   7.548
11635  LAT   Au12175   5.508   6.528   7.548
11636  LAT   Au12176   5.712   6.528   7.344
11637  LAT   Au12177   5.916   6.732   7.344
11638  LAT   Au12178   5.712   6.732   7.548
11639  LAT   Au12179   5.916   6.528   7.548
11640  LAT   Au12180   6.120   6.528   7.344
11641  LAT   Au12181   6.324   6.732   7.344
11642  LAT   Au12182   6.120   6.732   7.548
11643  LAT   Au12183   6.324   6.528   7.548
11644  LAT   Au12184   6.528   6.528   7.344
11645  LAT   Au12185   6.732   6.732   7.344
11646  LAT   Au12186   6.528   6.732   7.548
11647  LAT   Au12187   6.732   6.528   7.548
11648  LAT   Au12188   6.936   6.528   7.344
11649  LAT   Au12189   7.140   6.732   7.344
11650  LAT   Au12190   6.936   6.732   7.548
11651  LAT   Au12191   7.140   6.528   7.548
11652  LAT   Au12192   0.000   6.936   7.344
11653  LAT   Au12193   0.204   7.140   7.344
11654  LAT   Au12194   0.000   7.140   7.548
11655  LAT   Au12195   0.204   6.936   7.548
11656  LAT   Au12196   0.408   6.936   7.344
11657  LAT   Au12197   0.612   7.140   7.344
11658  LAT   Au12198   0.408   7.140   7.548
11659  LAT   Au12199   0.612   6.936   7.548
11660  LAT   Au12200   0.816   6.936   7.344
11661  LAT   Au12201   1.020   7.140   7.344
11662  LAT   Au12202   0.816   7.140   7.548
11663  LAT   Au12203   1.020   6.936   7.548
11664  LAT   Au12204   1.224   6.936   7.344
11665  LAT   Au12205   1.428   7.140   7.344
11666  LAT   Au12206   1.224   7.140   7.548
11667  LAT   Au12207   1.428   6.936   7.548
11668  LAT   Au12208   1.632   6.936   7.344
11669  LAT   Au12209   1.836   7.140   7.344
11670  LAT   Au12210   1.632   7.140   7.548
11671  LAT   Au12211   1.836   6.936   7.548
11672  LAT   Au12212   2.040   6.936   7.344
11673  LAT   Au12213   2.244   7.140   7.344
11674  LAT   Au12214   2.040   7.140   7.548
11675  LAT   Au12215   2.244   6.936   7.548
11676  LAT   Au12216   2.448   6.936   7.344
11677  LAT   Au12217   2.652   7.140   7.344
11678  LAT   Au12218   2.448   7.140   7.548
11679  LAT   Au12219   2.652   6.936   7.548
11680  LAT   Au12220   2.856   6.936   7.344
11681  LAT   Au12221   3.060   7.140   7.344
11682  LAT   Au12222   2.856   7.140   7.548
11683  LAT   Au12223   3.060   6.936   7.548
11684  LAT   Au12224   3.264   6.936   7.344
11685  LAT   Au12225   3.468   7.140   7.344
11686  LAT   Au12226   3.264   7.140   7.548
11687  LAT   Au12227   3.468   6.936   7.548
11688  LAT   Au12228   3.672   6.936   7.344
11689  LAT   Au12229   3.876   7.140   7.344
11690  LAT   Au12230   3.672   7.140   7.548
11691  LAT   Au12231   3.876   6.936   7.548
11692  LAT   Au12232   4.080   6.936   7.344
11693  LAT   Au12233   4.284   7.140   7.344
11694  LAT   Au12234   4.080   7.140   7.548
11695  LAT   Au12235   4.284   6.936   7.548
11696  LAT   Au12236   4.488   6.936   7.344
11697  LAT   Au12237   4.692   7.140   7.344
11698  LAT   Au12238   4.488   7.140   7.548
11699  LAT   Au12239   4.692   6.936   7.548
11700  LAT   Au12240   4.896   6.936   7.344
11701  LAT   Au12241   5.100   7.140   7.344
11702  LAT   Au12242   4.896   7.140   7.548
11703  LAT   Au12243   5.100   6.936   7.548
11704  LAT   Au12244   5.304   6.936   7.344
11705  LAT   Au12245   5.508   7.140   7.344
11706  LAT   Au12246   5.304   7.140   7.548
11707  LAT   Au12247   5.508   6.936   7.548
11708  LAT   Au12248   5.712   6.936   7.344
11709  LAT   Au12249   5.916   7.140   7.344
11710  LAT   Au12250   5.712   7.140   7.548
11711  LAT   Au12251   5.916   6.936   7.548
11712  LAT   Au12252   6.120   6.936   7.344
11713  LAT   Au12253   6.324   7.140   7.344
11714  LAT   Au12254   6.120   7.140   7.548
11715  LAT   Au12255   6.324   6.936   7.548
11716  LAT   Au12256   6.528   6.936   7.344
11717  LAT   Au12257   6.732   7.140   7.344
11718  LAT   Au12258   6.528   7.140   7.548
11719  LAT   Au12259   6.732   6.936   7.548
11720  LAT   Au12260   6.936   6.936   7.344
11721  LAT   Au12261   7.140   7.140   7.344
11722  LAT   Au12262   6.936   7.140   7.548
11723  LAT   Au12263   7.140   6.936   7.548
  10.00000  10.00000  10.00000
