Write by polyGraft 
 1206
    1   PE   C1    1   2.509   1.428   0.000
    1   PE   C2    2   2.979   1.428   0.000
    1   PE   C3    3   3.449   1.428   0.000
    1   PE   C4    4   3.919   1.428   0.000
    1   PE   C5    5   4.389   1.428   0.000
    1   PE   C6    6   4.859   1.428   0.000
    1   PE   C1    7   2.509   1.428   0.816
    1   PE   C2    8   2.979   1.428   0.816
    1   PE   C3    9   3.449   1.428   0.816
    1   PE   C4   10   3.919   1.428   0.816
    1   PE   C5   11   4.389   1.428   0.816
    1   PE   C6   12   4.859   1.428   0.816
    1   PE   C1   13   2.509   1.428   1.224
    1   PE   C2   14   2.979   1.428   1.224
    1   PE   C3   15   3.449   1.428   1.224
    1   PE   C4   16   3.919   1.428   1.224
    1   PE   C5   17   4.389   1.428   1.224
    1   PE   C6   18   4.859   1.428   1.224
    1   PE   C1   19   2.509   1.428   2.040
    1   PE   C2   20   2.979   1.428   2.040
    1   PE   C3   21   3.449   1.428   2.040
    1   PE   C4   22   3.919   1.428   2.040
    1   PE   C5   23   4.389   1.428   2.040
    1   PE   C6   24   4.859   1.428   2.040
    1   PE   C1   25   2.509   1.428   2.856
    1   PE   C2   26   2.979   1.428   2.856
    1   PE   C3   27   3.449   1.428   2.856
    1   PE   C4   28   3.919   1.428   2.856
    1   PE   C5   29   4.389   1.428   2.856
    1   PE   C6   30   4.859   1.428   2.856
    1   PE   C1   31   2.509   1.428   3.264
    1   PE   C2   32   2.979   1.428   3.264
    1   PE   C3   33   3.449   1.428   3.264
    1   PE   C4   34   3.919   1.428   3.264
    1   PE   C5   35   4.389   1.428   3.264
    1   PE   C6   36   4.859   1.428   3.264
    1   PE   C1   37   2.509   1.428   4.080
    1   PE   C2   38   2.979   1.428   4.080
    1   PE   C3   39   3.449   1.428   4.080
    1   PE   C4   40   3.919   1.428   4.080
    1   PE   C5   41   4.389   1.428   4.080
    1   PE   C6   42   4.859   1.428   4.080
    1   PE   C1   43   2.227   2.227   0.000
    1   PE   C2   44   2.560   2.560   0.000
    1   PE   C3   45   2.892   2.892   0.000
    1   PE   C4   46   3.224   3.224   0.000
    1   PE   C5   47   3.557   3.557   0.000
    1   PE   C6   48   3.889   3.889   0.000
    1   PE   C1   49   2.227   2.227   0.816
    1   PE   C2   50   2.560   2.560   0.816
    1   PE   C3   51   2.892   2.892   0.816
    1   PE   C4   52   3.224   3.224   0.816
    1   PE   C5   53   3.557   3.557   0.816
    1   PE   C6   54   3.889   3.889   0.816
    1   PE   C1   55   2.227   2.227   1.224
    1   PE   C2   56   2.560   2.560   1.224
    1   PE   C3   57   2.892   2.892   1.224
    1   PE   C4   58   3.224   3.224   1.224
    1   PE   C5   59   3.557   3.557   1.224
    1   PE   C6   60   3.889   3.889   1.224
    1   PE   C1   61   2.227   2.227   2.040
    1   PE   C2   62   2.560   2.560   2.040
    1   PE   C3   63   2.892   2.892   2.040
    1   PE   C4   64   3.224   3.224   2.040
    1   PE   C5   65   3.557   3.557   2.040
    1   PE   C6   66   3.889   3.889   2.040
    1   PE   C1   67   2.227   2.227   2.856
    1   PE   C2   68   2.560   2.560   2.856
    1   PE   C3   69   2.892   2.892   2.856
    1   PE   C4   70   3.224   3.224   2.856
    1   PE   C5   71   3.557   3.557   2.856
    1   PE   C6   72   3.889   3.889   2.856
    1   PE   C1   73   2.227   2.227   3.264
    1   PE   C2   74   2.560   2.560   3.264
    1   PE   C3   75   2.892   2.892   3.264
    1   PE   C4   76   3.224   3.224   3.264
    1   PE   C5   77   3.557   3.557   3.264
    1   PE   C6   78   3.889   3.889   3.264
    1   PE   C1   79   2.227   2.227   4.080
    1   PE   C2   80   2.560   2.560   4.080
    1   PE   C3   81   2.892   2.892   4.080
    1   PE   C4   82   3.224   3.224   4.080
    1   PE   C5   83   3.557   3.557   4.080
    1   PE   C6   84   3.889   3.889   4.080
    1   PE   C1   85   1.696   2.501   0.204
    1   PE   C2   86   1.810   2.957   0.204
    1   PE   C3   87   1.924   3.413   0.204
    1   PE   C4   88   2.038   3.869   0.204
    1   PE   C5   89   2.152   4.325   0.204
    1   PE   C6   90   2.266   4.781   0.204
    1   PE   C1   91   1.428   2.509   0.816
    1   PE   C2   92   1.428   2.979   0.816
    1   PE   C3   93   1.428   3.449   0.816
    1   PE   C4   94   1.428   3.919   0.816
    1   PE   C5   95   1.428   4.389   0.816
    1   PE   C6   96   1.428   4.859   0.816
    1   PE   C1   97   1.696   2.501   1.428
    1   PE   C2   98   1.810   2.957   1.428
    1   PE   C3   99   1.924   3.413   1.428
    1   PE   C4  100   2.038   3.869   1.428
    1   PE   C5  101   2.152   4.325   1.428
    1   PE   C6  102   2.266   4.781   1.428
    1   PE   C1  103   1.428   2.509   2.040
    1   PE   C2  104   1.428   2.979   2.040
    1   PE   C3  105   1.428   3.449   2.040
    1   PE   C4  106   1.428   3.919   2.040
    1   PE   C5  107   1.428   4.389   2.040
    1   PE   C6  108   1.428   4.859   2.040
    1   PE   C1  109   1.696   2.501   2.652
    1   PE   C2  110   1.810   2.957   2.652
    1   PE   C3  111   1.924   3.413   2.652
    1   PE   C4  112   2.038   3.869   2.652
    1   PE   C5  113   2.152   4.325   2.652
    1   PE   C6  114   2.266   4.781   2.652
    1   PE   C1  115   1.696   2.501   3.468
    1   PE   C2  116   1.810   2.957   3.468
    1   PE   C3  117   1.924   3.413   3.468
    1   PE   C4  118   2.038   3.869   3.468
    1   PE   C5  119   2.152   4.325   3.468
    1   PE   C6  120   2.266   4.781   3.468
    1   PE   C1  121   1.696   2.501   3.876
    1   PE   C2  122   1.810   2.957   3.876
    1   PE   C3  123   1.924   3.413   3.876
    1   PE   C4  124   2.038   3.869   3.876
    1   PE   C5  125   2.152   4.325   3.876
    1   PE   C6  126   2.266   4.781   3.876
    1   PE   C1  127   0.901   2.481   0.000
    1   PE   C2  128   0.691   2.901   0.000
    1   PE   C3  129   0.481   3.322   0.000
    1   PE   C4  130   0.271   3.742   0.000
    1   PE   C5  131   0.061   4.163   0.000
    1   PE   C6  132  -0.149   4.583   0.000
    1   PE   C1  133   0.901   2.481   0.816
    1   PE   C2  134   0.691   2.901   0.816
    1   PE   C3  135   0.481   3.322   0.816
    1   PE   C4  136   0.271   3.742   0.816
    1   PE   C5  137   0.061   4.163   0.816
    1   PE   C6  138  -0.149   4.583   0.816
    1   PE   C1  139   0.901   2.481   1.224
    1   PE   C2  140   0.691   2.901   1.224
    1   PE   C3  141   0.481   3.322   1.224
    1   PE   C4  142   0.271   3.742   1.224
    1   PE   C5  143   0.061   4.163   1.224
    1   PE   C6  144  -0.149   4.583   1.224
    1   PE   C1  145   0.901   2.481   2.040
    1   PE   C2  146   0.691   2.901   2.040
    1   PE   C3  147   0.481   3.322   2.040
    1   PE   C4  148   0.271   3.742   2.040
    1   PE   C5  149   0.061   4.163   2.040
    1   PE   C6  150  -0.149   4.583   2.040
    1   PE   C1  151   0.901   2.481   2.856
    1   PE   C2  152   0.691   2.901   2.856
    1   PE   C3  153   0.481   3.322   2.856
    1   PE   C4  154   0.271   3.742   2.856
    1   PE   C5  155   0.061   4.163   2.856
    1   PE   C6  156  -0.149   4.583   2.856
    1   PE   C1  157   0.901   2.481   3.264
    1   PE   C2  158   0.691   2.901   3.264
    1   PE   C3  159   0.481   3.322   3.264
    1   PE   C4  160   0.271   3.742   3.264
    1   PE   C5  161   0.061   4.163   3.264
    1   PE   C6  162  -0.149   4.583   3.264
    1   PE   C1  163   0.901   2.481   4.080
    1   PE   C2  164   0.691   2.901   4.080
    1   PE   C3  165   0.481   3.322   4.080
    1   PE   C4  166   0.271   3.742   4.080
    1   PE   C5  167   0.061   4.163   4.080
    1   PE   C6  168  -0.149   4.583   4.080
    1   PE   C1  169   0.355   1.696   0.204
    1   PE   C2  170  -0.101   1.810   0.204
    1   PE   C3  171  -0.557   1.924   0.204
    1   PE   C4  172  -1.013   2.038   0.204
    1   PE   C5  173  -1.469   2.152   0.204
    1   PE   C6  174  -1.925   2.266   0.204
    1   PE   C1  175   0.375   1.955   0.816
    1   PE   C2  176  -0.045   2.165   0.816
    1   PE   C3  177  -0.466   2.375   0.816
    1   PE   C4  178  -0.886   2.585   0.816
    1   PE   C5  179  -1.307   2.795   0.816
    1   PE   C6  180  -1.727   3.005   0.816
    1   PE   C1  181   0.355   1.696   1.428
    1   PE   C2  182  -0.101   1.810   1.428
    1   PE   C3  183  -0.557   1.924   1.428
    1   PE   C4  184  -1.013   2.038   1.428
    1   PE   C5  185  -1.469   2.152   1.428
    1   PE   C6  186  -1.925   2.266   1.428
    1   PE   C1  187   0.375   1.955   2.040
    1   PE   C2  188  -0.045   2.165   2.040
    1   PE   C3  189  -0.466   2.375   2.040
    1   PE   C4  190  -0.886   2.585   2.040
    1   PE   C5  191  -1.307   2.795   2.040
    1   PE   C6  192  -1.727   3.005   2.040
    1   PE   C1  193   0.355   1.696   2.652
    1   PE   C2  194  -0.101   1.810   2.652
    1   PE   C3  195  -0.557   1.924   2.652
    1   PE   C4  196  -1.013   2.038   2.652
    1   PE   C5  197  -1.469   2.152   2.652
    1   PE   C6  198  -1.925   2.266   2.652
    1   PE   C1  199   0.375   1.955   3.264
    1   PE   C2  200  -0.045   2.165   3.264
    1   PE   C3  201  -0.466   2.375   3.264
    1   PE   C4  202  -0.886   2.585   3.264
    1   PE   C5  203  -1.307   2.795   3.264
    1   PE   C6  204  -1.727   3.005   3.264
    1   PE   C1  205   0.375   1.955   4.080
    1   PE   C2  206  -0.045   2.165   4.080
    1   PE   C3  207  -0.466   2.375   4.080
    1   PE   C4  208  -0.886   2.585   4.080
    1   PE   C5  209  -1.307   2.795   4.080
    1   PE   C6  210  -1.727   3.005   4.080
    1   PE   C1  211   0.355   1.160   0.204
    1   PE   C2  212  -0.101   1.046   0.204
    1   PE   C3  213  -0.557   0.932   0.204
    1   PE   C4  214  -1.013   0.818   0.204
    1   PE   C5  215  -1.469   0.704   0.204
    1   PE   C6  216  -1.925   0.590   0.204
    1   PE   C1  217   0.375   0.901   0.816
    1   PE   C2  218  -0.045   0.691   0.816
    1   PE   C3  219  -0.466   0.481   0.816
    1   PE   C4  220  -0.886   0.271   0.816
    1   PE   C5  221  -1.307   0.061   0.816
    1   PE   C6  222  -1.727  -0.149   0.816
    1   PE   C1  223   0.355   1.160   1.428
    1   PE   C2  224  -0.101   1.046   1.428
    1   PE   C3  225  -0.557   0.932   1.428
    1   PE   C4  226  -1.013   0.818   1.428
    1   PE   C5  227  -1.469   0.704   1.428
    1   PE   C6  228  -1.925   0.590   1.428
    1   PE   C1  229   0.375   0.901   2.040
    1   PE   C2  230  -0.045   0.691   2.040
    1   PE   C3  231  -0.466   0.481   2.040
    1   PE   C4  232  -0.886   0.271   2.040
    1   PE   C5  233  -1.307   0.061   2.040
    1   PE   C6  234  -1.727  -0.149   2.040
    1   PE   C1  235   0.355   1.160   2.652
    1   PE   C2  236  -0.101   1.046   2.652
    1   PE   C3  237  -0.557   0.932   2.652
    1   PE   C4  238  -1.013   0.818   2.652
    1   PE   C5  239  -1.469   0.704   2.652
    1   PE   C6  240  -1.925   0.590   2.652
    1   PE   C1  241   0.375   0.901   3.264
    1   PE   C2  242  -0.045   0.691   3.264
    1   PE   C3  243  -0.466   0.481   3.264
    1   PE   C4  244  -0.886   0.271   3.264
    1   PE   C5  245  -1.307   0.061   3.264
    1   PE   C6  246  -1.727  -0.149   3.264
    1   PE   C1  247   0.375   0.901   4.080
    1   PE   C2  248  -0.045   0.691   4.080
    1   PE   C3  249  -0.466   0.481   4.080
    1   PE   C4  250  -0.886   0.271   4.080
    1   PE   C5  251  -1.307   0.061   4.080
    1   PE   C6  252  -1.727  -0.149   4.080
    1   PE   C1  253   0.901   0.375   0.000
    1   PE   C2  254   0.691  -0.045   0.000
    1   PE   C3  255   0.481  -0.466   0.000
    1   PE   C4  256   0.271  -0.886   0.000
    1   PE   C5  257   0.061  -1.307   0.000
    1   PE   C6  258  -0.149  -1.727   0.000
    1   PE   C1  259   0.901   0.375   0.816
    1   PE   C2  260   0.691  -0.045   0.816
    1   PE   C3  261   0.481  -0.466   0.816
    1   PE   C4  262   0.271  -0.886   0.816
    1   PE   C5  263   0.061  -1.307   0.816
    1   PE   C6  264  -0.149  -1.727   0.816
    1   PE   C1  265   0.901   0.375   1.224
    1   PE   C2  266   0.691  -0.045   1.224
    1   PE   C3  267   0.481  -0.466   1.224
    1   PE   C4  268   0.271  -0.886   1.224
    1   PE   C5  269   0.061  -1.307   1.224
    1   PE   C6  270  -0.149  -1.727   1.224
    1   PE   C1  271   0.901   0.375   2.040
    1   PE   C2  272   0.691  -0.045   2.040
    1   PE   C3  273   0.481  -0.466   2.040
    1   PE   C4  274   0.271  -0.886   2.040
    1   PE   C5  275   0.061  -1.307   2.040
    1   PE   C6  276  -0.149  -1.727   2.040
    1   PE   C1  277   0.901   0.375   2.856
    1   PE   C2  278   0.691  -0.045   2.856
    1   PE   C3  279   0.481  -0.466   2.856
    1   PE   C4  280   0.271  -0.886   2.856
    1   PE   C5  281   0.061  -1.307   2.856
    1   PE   C6  282  -0.149  -1.727   2.856
    1   PE   C1  283   0.901   0.375   3.264
    1   PE   C2  284   0.691  -0.045   3.264
    1   PE   C3  285   0.481  -0.466   3.264
    1   PE   C4  286   0.271  -0.886   3.264
    1   PE   C5  287   0.061  -1.307   3.264
    1   PE   C6  288  -0.149  -1.727   3.264
    1   PE   C1  289   0.901   0.375   4.080
    1   PE   C2  290   0.691  -0.045   4.080
    1   PE   C3  291   0.481  -0.466   4.080
    1   PE   C4  292   0.271  -0.886   4.080
    1   PE   C5  293   0.061  -1.307   4.080
    1   PE   C6  294  -0.149  -1.727   4.080
    1   PE   C1  295   1.696   0.355   0.204
    1   PE   C2  296   1.810  -0.101   0.204
    1   PE   C3  297   1.924  -0.557   0.204
    1   PE   C4  298   2.038  -1.013   0.204
    1   PE   C5  299   2.152  -1.469   0.204
    1   PE   C6  300   2.266  -1.925   0.204
    1   PE   C1  301   1.428   0.347   0.816
    1   PE   C2  302   1.428  -0.123   0.816
    1   PE   C3  303   1.428  -0.593   0.816
    1   PE   C4  304   1.428  -1.063   0.816
    1   PE   C5  305   1.428  -1.533   0.816
    1   PE   C6  306   1.428  -2.003   0.816
    1   PE   C1  307   1.696   0.355   1.428
    1   PE   C2  308   1.810  -0.101   1.428
    1   PE   C3  309   1.924  -0.557   1.428
    1   PE   C4  310   2.038  -1.013   1.428
    1   PE   C5  311   2.152  -1.469   1.428
    1   PE   C6  312   2.266  -1.925   1.428
    1   PE   C1  313   1.428   0.347   2.040
    1   PE   C2  314   1.428  -0.123   2.040
    1   PE   C3  315   1.428  -0.593   2.040
    1   PE   C4  316   1.428  -1.063   2.040
    1   PE   C5  317   1.428  -1.533   2.040
    1   PE   C6  318   1.428  -2.003   2.040
    1   PE   C1  319   1.696   0.355   2.652
    1   PE   C2  320   1.810  -0.101   2.652
    1   PE   C3  321   1.924  -0.557   2.652
    1   PE   C4  322   2.038  -1.013   2.652
    1   PE   C5  323   2.152  -1.469   2.652
    1   PE   C6  324   2.266  -1.925   2.652
    1   PE   C1  325   1.696   0.355   3.468
    1   PE   C2  326   1.810  -0.101   3.468
    1   PE   C3  327   1.924  -0.557   3.468
    1   PE   C4  328   2.038  -1.013   3.468
    1   PE   C5  329   2.152  -1.469   3.468
    1   PE   C6  330   2.266  -1.925   3.468
    1   PE   C1  331   1.696   0.355   3.876
    1   PE   C2  332   1.810  -0.101   3.876
    1   PE   C3  333   1.924  -0.557   3.876
    1   PE   C4  334   2.038  -1.013   3.876
    1   PE   C5  335   2.152  -1.469   3.876
    1   PE   C6  336   2.266  -1.925   3.876
    1   PE   C1  337   2.227   0.629   0.000
    1   PE   C2  338   2.560   0.296   0.000
    1   PE   C3  339   2.892  -0.036   0.000
    1   PE   C4  340   3.224  -0.368   0.000
    1   PE   C5  341   3.557  -0.701   0.000
    1   PE   C6  342   3.889  -1.033   0.000
    1   PE   C1  343   2.227   0.629   0.816
    1   PE   C2  344   2.560   0.296   0.816
    1   PE   C3  345   2.892  -0.036   0.816
    1   PE   C4  346   3.224  -0.368   0.816
    1   PE   C5  347   3.557  -0.701   0.816
    1   PE   C6  348   3.889  -1.033   0.816
    1   PE   C1  349   2.227   0.629   1.224
    1   PE   C2  350   2.560   0.296   1.224
    1   PE   C3  351   2.892  -0.036   1.224
    1   PE   C4  352   3.224  -0.368   1.224
    1   PE   C5  353   3.557  -0.701   1.224
    1   PE   C6  354   3.889  -1.033   1.224
    1   PE   C1  355   2.227   0.629   2.040
    1   PE   C2  356   2.560   0.296   2.040
    1   PE   C3  357   2.892  -0.036   2.040
    1   PE   C4  358   3.224  -0.368   2.040
    1   PE   C5  359   3.557  -0.701   2.040
    1   PE   C6  360   3.889  -1.033   2.040
    1   PE   C1  361   2.227   0.629   2.856
    1   PE   C2  362   2.560   0.296   2.856
    1   PE   C3  363   2.892  -0.036   2.856
    1   PE   C4  364   3.224  -0.368   2.856
    1   PE   C5  365   3.557  -0.701   2.856
    1   PE   C6  366   3.889  -1.033   2.856
    1   PE   C1  367   2.227   0.629   3.264
    1   PE   C2  368   2.560   0.296   3.264
    1   PE   C3  369   2.892  -0.036   3.264
    1   PE   C4  370   3.224  -0.368   3.264
    1   PE   C5  371   3.557  -0.701   3.264
    1   PE   C6  372   3.889  -1.033   3.264
    1   PE   C1  373   2.227   0.629   4.080
    1   PE   C2  374   2.560   0.296   4.080
    1   PE   C3  375   2.892  -0.036   4.080
    1   PE   C4  376   3.224  -0.368   4.080
    1   PE   C5  377   3.557  -0.701   4.080
    1   PE   C6  378   3.889  -1.033   4.080
    1  LAT   Au  379   1.020   0.612   0.000
    2  LAT   Au  380   1.428   0.612   0.000
    3  LAT   Au  381   1.224   0.612   0.204
    4  LAT   Au  382   1.836   0.612   0.000
    5  LAT   Au  383   1.632   0.612   0.204
    6  LAT   Au  384   0.612   1.020   0.000
    7  LAT   Au  385   0.816   0.816   0.000
    8  LAT   Au  386   1.020   1.020   0.000
    9  LAT   Au  387   0.816   1.020   0.204
   10  LAT   Au  388   1.020   0.816   0.204
   11  LAT   Au  389   1.224   0.816   0.000
   12  LAT   Au  390   1.428   1.020   0.000
   13  LAT   Au  391   1.224   1.020   0.204
   14  LAT   Au  392   1.428   0.816   0.204
   15  LAT   Au  393   1.632   0.816   0.000
   16  LAT   Au  394   1.836   1.020   0.000
   17  LAT   Au  395   1.632   1.020   0.204
   18  LAT   Au  396   1.836   0.816   0.204
   19  LAT   Au  397   2.040   0.816   0.000
   20  LAT   Au  398   2.244   1.020   0.000
   21  LAT   Au  399   2.040   1.020   0.204
   22  LAT   Au  400   0.612   1.428   0.000
   23  LAT   Au  401   0.612   1.224   0.204
   24  LAT   Au  402   0.816   1.224   0.000
   25  LAT   Au  403   1.020   1.428   0.000
   26  LAT   Au  404   0.816   1.428   0.204
   27  LAT   Au  405   1.020   1.224   0.204
   28  LAT   Au  406   1.224   1.224   0.000
   29  LAT   Au  407   1.428   1.428   0.000
   30  LAT   Au  408   1.224   1.428   0.204
   31  LAT   Au  409   1.428   1.224   0.204
   32  LAT   Au  410   1.632   1.224   0.000
   33  LAT   Au  411   1.836   1.428   0.000
   34  LAT   Au  412   1.632   1.428   0.204
   35  LAT   Au  413   1.836   1.224   0.204
   36  LAT   Au  414   2.040   1.224   0.000
   37  LAT   Au  415   2.244   1.428   0.000
   38  LAT   Au  416   2.040   1.428   0.204
   39  LAT   Au  417   2.244   1.224   0.204
   40  LAT   Au  418   0.612   1.836   0.000
   41  LAT   Au  419   0.612   1.632   0.204
   42  LAT   Au  420   0.816   1.632   0.000
   43  LAT   Au  421   1.020   1.836   0.000
   44  LAT   Au  422   0.816   1.836   0.204
   45  LAT   Au  423   1.020   1.632   0.204
   46  LAT   Au  424   1.224   1.632   0.000
   47  LAT   Au  425   1.428   1.836   0.000
   48  LAT   Au  426   1.224   1.836   0.204
   49  LAT   Au  427   1.428   1.632   0.204
   50  LAT   Au  428   1.632   1.632   0.000
   51  LAT   Au  429   1.836   1.836   0.000
   52  LAT   Au  430   1.632   1.836   0.204
   53  LAT   Au  431   1.836   1.632   0.204
   54  LAT   Au  432   2.040   1.632   0.000
   55  LAT   Au  433   2.244   1.836   0.000
   56  LAT   Au  434   2.040   1.836   0.204
   57  LAT   Au  435   2.244   1.632   0.204
   58  LAT   Au  436   0.816   2.040   0.000
   59  LAT   Au  437   1.020   2.244   0.000
   60  LAT   Au  438   1.020   2.040   0.204
   61  LAT   Au  439   1.224   2.040   0.000
   62  LAT   Au  440   1.428   2.244   0.000
   63  LAT   Au  441   1.224   2.244   0.204
   64  LAT   Au  442   1.428   2.040   0.204
   65  LAT   Au  443   1.632   2.040   0.000
   66  LAT   Au  444   1.836   2.244   0.000
   67  LAT   Au  445   1.632   2.244   0.204
   68  LAT   Au  446   1.836   2.040   0.204
   69  LAT   Au  447   2.040   2.040   0.000
   70  LAT   Au  448   1.020   0.612   0.408
   71  LAT   Au  449   1.428   0.612   0.408
   72  LAT   Au  450   1.224   0.612   0.612
   73  LAT   Au  451   1.836   0.612   0.408
   74  LAT   Au  452   1.632   0.612   0.612
   75  LAT   Au  453   0.612   1.020   0.408
   76  LAT   Au  454   0.816   0.816   0.408
   77  LAT   Au  455   1.020   1.020   0.408
   78  LAT   Au  456   0.816   1.020   0.612
   79  LAT   Au  457   1.020   0.816   0.612
   80  LAT   Au  458   1.224   0.816   0.408
   81  LAT   Au  459   1.428   1.020   0.408
   82  LAT   Au  460   1.224   1.020   0.612
   83  LAT   Au  461   1.428   0.816   0.612
   84  LAT   Au  462   1.632   0.816   0.408
   85  LAT   Au  463   1.836   1.020   0.408
   86  LAT   Au  464   1.632   1.020   0.612
   87  LAT   Au  465   1.836   0.816   0.612
   88  LAT   Au  466   2.040   0.816   0.408
   89  LAT   Au  467   2.244   1.020   0.408
   90  LAT   Au  468   2.040   1.020   0.612
   91  LAT   Au  469   0.612   1.428   0.408
   92  LAT   Au  470   0.612   1.224   0.612
   93  LAT   Au  471   0.816   1.224   0.408
   94  LAT   Au  472   1.020   1.428   0.408
   95  LAT   Au  473   0.816   1.428   0.612
   96  LAT   Au  474   1.020   1.224   0.612
   97  LAT   Au  475   1.224   1.224   0.408
   98  LAT   Au  476   1.428   1.428   0.408
   99  LAT   Au  477   1.224   1.428   0.612
  100  LAT   Au  478   1.428   1.224   0.612
  101  LAT   Au  479   1.632   1.224   0.408
  102  LAT   Au  480   1.836   1.428   0.408
  103  LAT   Au  481   1.632   1.428   0.612
  104  LAT   Au  482   1.836   1.224   0.612
  105  LAT   Au  483   2.040   1.224   0.408
  106  LAT   Au  484   2.244   1.428   0.408
  107  LAT   Au  485   2.040   1.428   0.612
  108  LAT   Au  486   2.244   1.224   0.612
  109  LAT   Au  487   0.612   1.836   0.408
  110  LAT   Au  488   0.612   1.632   0.612
  111  LAT   Au  489   0.816   1.632   0.408
  112  LAT   Au  490   1.020   1.836   0.408
  113  LAT   Au  491   0.816   1.836   0.612
  114  LAT   Au  492   1.020   1.632   0.612
  115  LAT   Au  493   1.224   1.632   0.408
  116  LAT   Au  494   1.428   1.836   0.408
  117  LAT   Au  495   1.224   1.836   0.612
  118  LAT   Au  496   1.428   1.632   0.612
  119  LAT   Au  497   1.632   1.632   0.408
  120  LAT   Au  498   1.836   1.836   0.408
  121  LAT   Au  499   1.632   1.836   0.612
  122  LAT   Au  500   1.836   1.632   0.612
  123  LAT   Au  501   2.040   1.632   0.408
  124  LAT   Au  502   2.244   1.836   0.408
  125  LAT   Au  503   2.040   1.836   0.612
  126  LAT   Au  504   2.244   1.632   0.612
  127  LAT   Au  505   0.816   2.040   0.408
  128  LAT   Au  506   1.020   2.244   0.408
  129  LAT   Au  507   1.020   2.040   0.612
  130  LAT   Au  508   1.224   2.040   0.408
  131  LAT   Au  509   1.428   2.244   0.408
  132  LAT   Au  510   1.224   2.244   0.612
  133  LAT   Au  511   1.428   2.040   0.612
  134  LAT   Au  512   1.632   2.040   0.408
  135  LAT   Au  513   1.836   2.244   0.408
  136  LAT   Au  514   1.632   2.244   0.612
  137  LAT   Au  515   1.836   2.040   0.612
  138  LAT   Au  516   2.040   2.040   0.408
  139  LAT   Au  517   1.020   0.612   0.816
  140  LAT   Au  518   1.428   0.612   0.816
  141  LAT   Au  519   1.224   0.612   1.020
  142  LAT   Au  520   1.836   0.612   0.816
  143  LAT   Au  521   1.632   0.612   1.020
  144  LAT   Au  522   0.612   1.020   0.816
  145  LAT   Au  523   0.816   0.816   0.816
  146  LAT   Au  524   1.020   1.020   0.816
  147  LAT   Au  525   0.816   1.020   1.020
  148  LAT   Au  526   1.020   0.816   1.020
  149  LAT   Au  527   1.224   0.816   0.816
  150  LAT   Au  528   1.428   1.020   0.816
  151  LAT   Au  529   1.224   1.020   1.020
  152  LAT   Au  530   1.428   0.816   1.020
  153  LAT   Au  531   1.632   0.816   0.816
  154  LAT   Au  532   1.836   1.020   0.816
  155  LAT   Au  533   1.632   1.020   1.020
  156  LAT   Au  534   1.836   0.816   1.020
  157  LAT   Au  535   2.040   0.816   0.816
  158  LAT   Au  536   2.244   1.020   0.816
  159  LAT   Au  537   2.040   1.020   1.020
  160  LAT   Au  538   0.612   1.428   0.816
  161  LAT   Au  539   0.612   1.224   1.020
  162  LAT   Au  540   0.816   1.224   0.816
  163  LAT   Au  541   1.020   1.428   0.816
  164  LAT   Au  542   0.816   1.428   1.020
  165  LAT   Au  543   1.020   1.224   1.020
  166  LAT   Au  544   1.224   1.224   0.816
  167  LAT   Au  545   1.428   1.428   0.816
  168  LAT   Au  546   1.224   1.428   1.020
  169  LAT   Au  547   1.428   1.224   1.020
  170  LAT   Au  548   1.632   1.224   0.816
  171  LAT   Au  549   1.836   1.428   0.816
  172  LAT   Au  550   1.632   1.428   1.020
  173  LAT   Au  551   1.836   1.224   1.020
  174  LAT   Au  552   2.040   1.224   0.816
  175  LAT   Au  553   2.244   1.428   0.816
  176  LAT   Au  554   2.040   1.428   1.020
  177  LAT   Au  555   2.244   1.224   1.020
  178  LAT   Au  556   0.612   1.836   0.816
  179  LAT   Au  557   0.612   1.632   1.020
  180  LAT   Au  558   0.816   1.632   0.816
  181  LAT   Au  559   1.020   1.836   0.816
  182  LAT   Au  560   0.816   1.836   1.020
  183  LAT   Au  561   1.020   1.632   1.020
  184  LAT   Au  562   1.224   1.632   0.816
  185  LAT   Au  563   1.428   1.836   0.816
  186  LAT   Au  564   1.224   1.836   1.020
  187  LAT   Au  565   1.428   1.632   1.020
  188  LAT   Au  566   1.632   1.632   0.816
  189  LAT   Au  567   1.836   1.836   0.816
  190  LAT   Au  568   1.632   1.836   1.020
  191  LAT   Au  569   1.836   1.632   1.020
  192  LAT   Au  570   2.040   1.632   0.816
  193  LAT   Au  571   2.244   1.836   0.816
  194  LAT   Au  572   2.040   1.836   1.020
  195  LAT   Au  573   2.244   1.632   1.020
  196  LAT   Au  574   0.816   2.040   0.816
  197  LAT   Au  575   1.020   2.244   0.816
  198  LAT   Au  576   1.020   2.040   1.020
  199  LAT   Au  577   1.224   2.040   0.816
  200  LAT   Au  578   1.428   2.244   0.816
  201  LAT   Au  579   1.224   2.244   1.020
  202  LAT   Au  580   1.428   2.040   1.020
  203  LAT   Au  581   1.632   2.040   0.816
  204  LAT   Au  582   1.836   2.244   0.816
  205  LAT   Au  583   1.632   2.244   1.020
  206  LAT   Au  584   1.836   2.040   1.020
  207  LAT   Au  585   2.040   2.040   0.816
  208  LAT   Au  586   1.020   0.612   1.224
  209  LAT   Au  587   1.428   0.612   1.224
  210  LAT   Au  588   1.224   0.612   1.428
  211  LAT   Au  589   1.836   0.612   1.224
  212  LAT   Au  590   1.632   0.612   1.428
  213  LAT   Au  591   0.612   1.020   1.224
  214  LAT   Au  592   0.816   0.816   1.224
  215  LAT   Au  593   1.020   1.020   1.224
  216  LAT   Au  594   0.816   1.020   1.428
  217  LAT   Au  595   1.020   0.816   1.428
  218  LAT   Au  596   1.224   0.816   1.224
  219  LAT   Au  597   1.428   1.020   1.224
  220  LAT   Au  598   1.224   1.020   1.428
  221  LAT   Au  599   1.428   0.816   1.428
  222  LAT   Au  600   1.632   0.816   1.224
  223  LAT   Au  601   1.836   1.020   1.224
  224  LAT   Au  602   1.632   1.020   1.428
  225  LAT   Au  603   1.836   0.816   1.428
  226  LAT   Au  604   2.040   0.816   1.224
  227  LAT   Au  605   2.244   1.020   1.224
  228  LAT   Au  606   2.040   1.020   1.428
  229  LAT   Au  607   0.612   1.428   1.224
  230  LAT   Au  608   0.612   1.224   1.428
  231  LAT   Au  609   0.816   1.224   1.224
  232  LAT   Au  610   1.020   1.428   1.224
  233  LAT   Au  611   0.816   1.428   1.428
  234  LAT   Au  612   1.020   1.224   1.428
  235  LAT   Au  613   1.224   1.224   1.224
  236  LAT   Au  614   1.428   1.428   1.224
  237  LAT   Au  615   1.224   1.428   1.428
  238  LAT   Au  616   1.428   1.224   1.428
  239  LAT   Au  617   1.632   1.224   1.224
  240  LAT   Au  618   1.836   1.428   1.224
  241  LAT   Au  619   1.632   1.428   1.428
  242  LAT   Au  620   1.836   1.224   1.428
  243  LAT   Au  621   2.040   1.224   1.224
  244  LAT   Au  622   2.244   1.428   1.224
  245  LAT   Au  623   2.040   1.428   1.428
  246  LAT   Au  624   2.244   1.224   1.428
  247  LAT   Au  625   0.612   1.836   1.224
  248  LAT   Au  626   0.612   1.632   1.428
  249  LAT   Au  627   0.816   1.632   1.224
  250  LAT   Au  628   1.020   1.836   1.224
  251  LAT   Au  629   0.816   1.836   1.428
  252  LAT   Au  630   1.020   1.632   1.428
  253  LAT   Au  631   1.224   1.632   1.224
  254  LAT   Au  632   1.428   1.836   1.224
  255  LAT   Au  633   1.224   1.836   1.428
  256  LAT   Au  634   1.428   1.632   1.428
  257  LAT   Au  635   1.632   1.632   1.224
  258  LAT   Au  636   1.836   1.836   1.224
  259  LAT   Au  637   1.632   1.836   1.428
  260  LAT   Au  638   1.836   1.632   1.428
  261  LAT   Au  639   2.040   1.632   1.224
  262  LAT   Au  640   2.244   1.836   1.224
  263  LAT   Au  641   2.040   1.836   1.428
  264  LAT   Au  642   2.244   1.632   1.428
  265  LAT   Au  643   0.816   2.040   1.224
  266  LAT   Au  644   1.020   2.244   1.224
  267  LAT   Au  645   1.020   2.040   1.428
  268  LAT   Au  646   1.224   2.040   1.224
  269  LAT   Au  647   1.428   2.244   1.224
  270  LAT   Au  648   1.224   2.244   1.428
  271  LAT   Au  649   1.428   2.040   1.428
  272  LAT   Au  650   1.632   2.040   1.224
  273  LAT   Au  651   1.836   2.244   1.224
  274  LAT   Au  652   1.632   2.244   1.428
  275  LAT   Au  653   1.836   2.040   1.428
  276  LAT   Au  654   2.040   2.040   1.224
  277  LAT   Au  655   1.020   0.612   1.632
  278  LAT   Au  656   1.428   0.612   1.632
  279  LAT   Au  657   1.224   0.612   1.836
  280  LAT   Au  658   1.836   0.612   1.632
  281  LAT   Au  659   1.632   0.612   1.836
  282  LAT   Au  660   0.612   1.020   1.632
  283  LAT   Au  661   0.816   0.816   1.632
  284  LAT   Au  662   1.020   1.020   1.632
  285  LAT   Au  663   0.816   1.020   1.836
  286  LAT   Au  664   1.020   0.816   1.836
  287  LAT   Au  665   1.224   0.816   1.632
  288  LAT   Au  666   1.428   1.020   1.632
  289  LAT   Au  667   1.224   1.020   1.836
  290  LAT   Au  668   1.428   0.816   1.836
  291  LAT   Au  669   1.632   0.816   1.632
  292  LAT   Au  670   1.836   1.020   1.632
  293  LAT   Au  671   1.632   1.020   1.836
  294  LAT   Au  672   1.836   0.816   1.836
  295  LAT   Au  673   2.040   0.816   1.632
  296  LAT   Au  674   2.244   1.020   1.632
  297  LAT   Au  675   2.040   1.020   1.836
  298  LAT   Au  676   0.612   1.428   1.632
  299  LAT   Au  677   0.612   1.224   1.836
  300  LAT   Au  678   0.816   1.224   1.632
  301  LAT   Au  679   1.020   1.428   1.632
  302  LAT   Au  680   0.816   1.428   1.836
  303  LAT   Au  681   1.020   1.224   1.836
  304  LAT   Au  682   1.224   1.224   1.632
  305  LAT   Au  683   1.428   1.428   1.632
  306  LAT   Au  684   1.224   1.428   1.836
  307  LAT   Au  685   1.428   1.224   1.836
  308  LAT   Au  686   1.632   1.224   1.632
  309  LAT   Au  687   1.836   1.428   1.632
  310  LAT   Au  688   1.632   1.428   1.836
  311  LAT   Au  689   1.836   1.224   1.836
  312  LAT   Au  690   2.040   1.224   1.632
  313  LAT   Au  691   2.244   1.428   1.632
  314  LAT   Au  692   2.040   1.428   1.836
  315  LAT   Au  693   2.244   1.224   1.836
  316  LAT   Au  694   0.612   1.836   1.632
  317  LAT   Au  695   0.612   1.632   1.836
  318  LAT   Au  696   0.816   1.632   1.632
  319  LAT   Au  697   1.020   1.836   1.632
  320  LAT   Au  698   0.816   1.836   1.836
  321  LAT   Au  699   1.020   1.632   1.836
  322  LAT   Au  700   1.224   1.632   1.632
  323  LAT   Au  701   1.428   1.836   1.632
  324  LAT   Au  702   1.224   1.836   1.836
  325  LAT   Au  703   1.428   1.632   1.836
  326  LAT   Au  704   1.632   1.632   1.632
  327  LAT   Au  705   1.836   1.836   1.632
  328  LAT   Au  706   1.632   1.836   1.836
  329  LAT   Au  707   1.836   1.632   1.836
  330  LAT   Au  708   2.040   1.632   1.632
  331  LAT   Au  709   2.244   1.836   1.632
  332  LAT   Au  710   2.040   1.836   1.836
  333  LAT   Au  711   2.244   1.632   1.836
  334  LAT   Au  712   0.816   2.040   1.632
  335  LAT   Au  713   1.020   2.244   1.632
  336  LAT   Au  714   1.020   2.040   1.836
  337  LAT   Au  715   1.224   2.040   1.632
  338  LAT   Au  716   1.428   2.244   1.632
  339  LAT   Au  717   1.224   2.244   1.836
  340  LAT   Au  718   1.428   2.040   1.836
  341  LAT   Au  719   1.632   2.040   1.632
  342  LAT   Au  720   1.836   2.244   1.632
  343  LAT   Au  721   1.632   2.244   1.836
  344  LAT   Au  722   1.836   2.040   1.836
  345  LAT   Au  723   2.040   2.040   1.632
  346  LAT   Au  724   1.020   0.612   2.040
  347  LAT   Au  725   1.428   0.612   2.040
  348  LAT   Au  726   1.224   0.612   2.244
  349  LAT   Au  727   1.836   0.612   2.040
  350  LAT   Au  728   1.632   0.612   2.244
  351  LAT   Au  729   0.612   1.020   2.040
  352  LAT   Au  730   0.816   0.816   2.040
  353  LAT   Au  731   1.020   1.020   2.040
  354  LAT   Au  732   0.816   1.020   2.244
  355  LAT   Au  733   1.020   0.816   2.244
  356  LAT   Au  734   1.224   0.816   2.040
  357  LAT   Au  735   1.428   1.020   2.040
  358  LAT   Au  736   1.224   1.020   2.244
  359  LAT   Au  737   1.428   0.816   2.244
  360  LAT   Au  738   1.632   0.816   2.040
  361  LAT   Au  739   1.836   1.020   2.040
  362  LAT   Au  740   1.632   1.020   2.244
  363  LAT   Au  741   1.836   0.816   2.244
  364  LAT   Au  742   2.040   0.816   2.040
  365  LAT   Au  743   2.244   1.020   2.040
  366  LAT   Au  744   2.040   1.020   2.244
  367  LAT   Au  745   0.612   1.428   2.040
  368  LAT   Au  746   0.612   1.224   2.244
  369  LAT   Au  747   0.816   1.224   2.040
  370  LAT   Au  748   1.020   1.428   2.040
  371  LAT   Au  749   0.816   1.428   2.244
  372  LAT   Au  750   1.020   1.224   2.244
  373  LAT   Au  751   1.224   1.224   2.040
  374  LAT   Au  752   1.428   1.428   2.040
  375  LAT   Au  753   1.224   1.428   2.244
  376  LAT   Au  754   1.428   1.224   2.244
  377  LAT   Au  755   1.632   1.224   2.040
  378  LAT   Au  756   1.836   1.428   2.040
  379  LAT   Au  757   1.632   1.428   2.244
  380  LAT   Au  758   1.836   1.224   2.244
  381  LAT   Au  759   2.040   1.224   2.040
  382  LAT   Au  760   2.244   1.428   2.040
  383  LAT   Au  761   2.040   1.428   2.244
  384  LAT   Au  762   2.244   1.224   2.244
  385  LAT   Au  763   0.612   1.836   2.040
  386  LAT   Au  764   0.612   1.632   2.244
  387  LAT   Au  765   0.816   1.632   2.040
  388  LAT   Au  766   1.020   1.836   2.040
  389  LAT   Au  767   0.816   1.836   2.244
  390  LAT   Au  768   1.020   1.632   2.244
  391  LAT   Au  769   1.224   1.632   2.040
  392  LAT   Au  770   1.428   1.836   2.040
  393  LAT   Au  771   1.224   1.836   2.244
  394  LAT   Au  772   1.428   1.632   2.244
  395  LAT   Au  773   1.632   1.632   2.040
  396  LAT   Au  774   1.836   1.836   2.040
  397  LAT   Au  775   1.632   1.836   2.244
  398  LAT   Au  776   1.836   1.632   2.244
  399  LAT   Au  777   2.040   1.632   2.040
  400  LAT   Au  778   2.244   1.836   2.040
  401  LAT   Au  779   2.040   1.836   2.244
  402  LAT   Au  780   2.244   1.632   2.244
  403  LAT   Au  781   0.816   2.040   2.040
  404  LAT   Au  782   1.020   2.244   2.040
  405  LAT   Au  783   1.020   2.040   2.244
  406  LAT   Au  784   1.224   2.040   2.040
  407  LAT   Au  785   1.428   2.244   2.040
  408  LAT   Au  786   1.224   2.244   2.244
  409  LAT   Au  787   1.428   2.040   2.244
  410  LAT   Au  788   1.632   2.040   2.040
  411  LAT   Au  789   1.836   2.244   2.040
  412  LAT   Au  790   1.632   2.244   2.244
  413  LAT   Au  791   1.836   2.040   2.244
  414  LAT   Au  792   2.040   2.040   2.040
  415  LAT   Au  793   1.020   0.612   2.448
  416  LAT   Au  794   1.428   0.612   2.448
  417  LAT   Au  795   1.224   0.612   2.652
  418  LAT   Au  796   1.836   0.612   2.448
  419  LAT   Au  797   1.632   0.612   2.652
  420  LAT   Au  798   0.612   1.020   2.448
  421  LAT   Au  799   0.816   0.816   2.448
  422  LAT   Au  800   1.020   1.020   2.448
  423  LAT   Au  801   0.816   1.020   2.652
  424  LAT   Au  802   1.020   0.816   2.652
  425  LAT   Au  803   1.224   0.816   2.448
  426  LAT   Au  804   1.428   1.020   2.448
  427  LAT   Au  805   1.224   1.020   2.652
  428  LAT   Au  806   1.428   0.816   2.652
  429  LAT   Au  807   1.632   0.816   2.448
  430  LAT   Au  808   1.836   1.020   2.448
  431  LAT   Au  809   1.632   1.020   2.652
  432  LAT   Au  810   1.836   0.816   2.652
  433  LAT   Au  811   2.040   0.816   2.448
  434  LAT   Au  812   2.244   1.020   2.448
  435  LAT   Au  813   2.040   1.020   2.652
  436  LAT   Au  814   0.612   1.428   2.448
  437  LAT   Au  815   0.612   1.224   2.652
  438  LAT   Au  816   0.816   1.224   2.448
  439  LAT   Au  817   1.020   1.428   2.448
  440  LAT   Au  818   0.816   1.428   2.652
  441  LAT   Au  819   1.020   1.224   2.652
  442  LAT   Au  820   1.224   1.224   2.448
  443  LAT   Au  821   1.428   1.428   2.448
  444  LAT   Au  822   1.224   1.428   2.652
  445  LAT   Au  823   1.428   1.224   2.652
  446  LAT   Au  824   1.632   1.224   2.448
  447  LAT   Au  825   1.836   1.428   2.448
  448  LAT   Au  826   1.632   1.428   2.652
  449  LAT   Au  827   1.836   1.224   2.652
  450  LAT   Au  828   2.040   1.224   2.448
  451  LAT   Au  829   2.244   1.428   2.448
  452  LAT   Au  830   2.040   1.428   2.652
  453  LAT   Au  831   2.244   1.224   2.652
  454  LAT   Au  832   0.612   1.836   2.448
  455  LAT   Au  833   0.612   1.632   2.652
  456  LAT   Au  834   0.816   1.632   2.448
  457  LAT   Au  835   1.020   1.836   2.448
  458  LAT   Au  836   0.816   1.836   2.652
  459  LAT   Au  837   1.020   1.632   2.652
  460  LAT   Au  838   1.224   1.632   2.448
  461  LAT   Au  839   1.428   1.836   2.448
  462  LAT   Au  840   1.224   1.836   2.652
  463  LAT   Au  841   1.428   1.632   2.652
  464  LAT   Au  842   1.632   1.632   2.448
  465  LAT   Au  843   1.836   1.836   2.448
  466  LAT   Au  844   1.632   1.836   2.652
  467  LAT   Au  845   1.836   1.632   2.652
  468  LAT   Au  846   2.040   1.632   2.448
  469  LAT   Au  847   2.244   1.836   2.448
  470  LAT   Au  848   2.040   1.836   2.652
  471  LAT   Au  849   2.244   1.632   2.652
  472  LAT   Au  850   0.816   2.040   2.448
  473  LAT   Au  851   1.020   2.244   2.448
  474  LAT   Au  852   1.020   2.040   2.652
  475  LAT   Au  853   1.224   2.040   2.448
  476  LAT   Au  854   1.428   2.244   2.448
  477  LAT   Au  855   1.224   2.244   2.652
  478  LAT   Au  856   1.428   2.040   2.652
  479  LAT   Au  857   1.632   2.040   2.448
  480  LAT   Au  858   1.836   2.244   2.448
  481  LAT   Au  859   1.632   2.244   2.652
  482  LAT   Au  860   1.836   2.040   2.652
  483  LAT   Au  861   2.040   2.040   2.448
  484  LAT   Au  862   1.020   0.612   2.856
  485  LAT   Au  863   1.428   0.612   2.856
  486  LAT   Au  864   1.224   0.612   3.060
  487  LAT   Au  865   1.836   0.612   2.856
  488  LAT   Au  866   1.632   0.612   3.060
  489  LAT   Au  867   0.612   1.020   2.856
  490  LAT   Au  868   0.816   0.816   2.856
  491  LAT   Au  869   1.020   1.020   2.856
  492  LAT   Au  870   0.816   1.020   3.060
  493  LAT   Au  871   1.020   0.816   3.060
  494  LAT   Au  872   1.224   0.816   2.856
  495  LAT   Au  873   1.428   1.020   2.856
  496  LAT   Au  874   1.224   1.020   3.060
  497  LAT   Au  875   1.428   0.816   3.060
  498  LAT   Au  876   1.632   0.816   2.856
  499  LAT   Au  877   1.836   1.020   2.856
  500  LAT   Au  878   1.632   1.020   3.060
  501  LAT   Au  879   1.836   0.816   3.060
  502  LAT   Au  880   2.040   0.816   2.856
  503  LAT   Au  881   2.244   1.020   2.856
  504  LAT   Au  882   2.040   1.020   3.060
  505  LAT   Au  883   0.612   1.428   2.856
  506  LAT   Au  884   0.612   1.224   3.060
  507  LAT   Au  885   0.816   1.224   2.856
  508  LAT   Au  886   1.020   1.428   2.856
  509  LAT   Au  887   0.816   1.428   3.060
  510  LAT   Au  888   1.020   1.224   3.060
  511  LAT   Au  889   1.224   1.224   2.856
  512  LAT   Au  890   1.428   1.428   2.856
  513  LAT   Au  891   1.224   1.428   3.060
  514  LAT   Au  892   1.428   1.224   3.060
  515  LAT   Au  893   1.632   1.224   2.856
  516  LAT   Au  894   1.836   1.428   2.856
  517  LAT   Au  895   1.632   1.428   3.060
  518  LAT   Au  896   1.836   1.224   3.060
  519  LAT   Au  897   2.040   1.224   2.856
  520  LAT   Au  898   2.244   1.428   2.856
  521  LAT   Au  899   2.040   1.428   3.060
  522  LAT   Au  900   2.244   1.224   3.060
  523  LAT   Au  901   0.612   1.836   2.856
  524  LAT   Au  902   0.612   1.632   3.060
  525  LAT   Au  903   0.816   1.632   2.856
  526  LAT   Au  904   1.020   1.836   2.856
  527  LAT   Au  905   0.816   1.836   3.060
  528  LAT   Au  906   1.020   1.632   3.060
  529  LAT   Au  907   1.224   1.632   2.856
  530  LAT   Au  908   1.428   1.836   2.856
  531  LAT   Au  909   1.224   1.836   3.060
  532  LAT   Au  910   1.428   1.632   3.060
  533  LAT   Au  911   1.632   1.632   2.856
  534  LAT   Au  912   1.836   1.836   2.856
  535  LAT   Au  913   1.632   1.836   3.060
  536  LAT   Au  914   1.836   1.632   3.060
  537  LAT   Au  915   2.040   1.632   2.856
  538  LAT   Au  916   2.244   1.836   2.856
  539  LAT   Au  917   2.040   1.836   3.060
  540  LAT   Au  918   2.244   1.632   3.060
  541  LAT   Au  919   0.816   2.040   2.856
  542  LAT   Au  920   1.020   2.244   2.856
  543  LAT   Au  921   1.020   2.040   3.060
  544  LAT   Au  922   1.224   2.040   2.856
  545  LAT   Au  923   1.428   2.244   2.856
  546  LAT   Au  924   1.224   2.244   3.060
  547  LAT   Au  925   1.428   2.040   3.060
  548  LAT   Au  926   1.632   2.040   2.856
  549  LAT   Au  927   1.836   2.244   2.856
  550  LAT   Au  928   1.632   2.244   3.060
  551  LAT   Au  929   1.836   2.040   3.060
  552  LAT   Au  930   2.040   2.040   2.856
  553  LAT   Au  931   1.020   0.612   3.264
  554  LAT   Au  932   1.428   0.612   3.264
  555  LAT   Au  933   1.224   0.612   3.468
  556  LAT   Au  934   1.836   0.612   3.264
  557  LAT   Au  935   1.632   0.612   3.468
  558  LAT   Au  936   0.612   1.020   3.264
  559  LAT   Au  937   0.816   0.816   3.264
  560  LAT   Au  938   1.020   1.020   3.264
  561  LAT   Au  939   0.816   1.020   3.468
  562  LAT   Au  940   1.020   0.816   3.468
  563  LAT   Au  941   1.224   0.816   3.264
  564  LAT   Au  942   1.428   1.020   3.264
  565  LAT   Au  943   1.224   1.020   3.468
  566  LAT   Au  944   1.428   0.816   3.468
  567  LAT   Au  945   1.632   0.816   3.264
  568  LAT   Au  946   1.836   1.020   3.264
  569  LAT   Au  947   1.632   1.020   3.468
  570  LAT   Au  948   1.836   0.816   3.468
  571  LAT   Au  949   2.040   0.816   3.264
  572  LAT   Au  950   2.244   1.020   3.264
  573  LAT   Au  951   2.040   1.020   3.468
  574  LAT   Au  952   0.612   1.428   3.264
  575  LAT   Au  953   0.612   1.224   3.468
  576  LAT   Au  954   0.816   1.224   3.264
  577  LAT   Au  955   1.020   1.428   3.264
  578  LAT   Au  956   0.816   1.428   3.468
  579  LAT   Au  957   1.020   1.224   3.468
  580  LAT   Au  958   1.224   1.224   3.264
  581  LAT   Au  959   1.428   1.428   3.264
  582  LAT   Au  960   1.224   1.428   3.468
  583  LAT   Au  961   1.428   1.224   3.468
  584  LAT   Au  962   1.632   1.224   3.264
  585  LAT   Au  963   1.836   1.428   3.264
  586  LAT   Au  964   1.632   1.428   3.468
  587  LAT   Au  965   1.836   1.224   3.468
  588  LAT   Au  966   2.040   1.224   3.264
  589  LAT   Au  967   2.244   1.428   3.264
  590  LAT   Au  968   2.040   1.428   3.468
  591  LAT   Au  969   2.244   1.224   3.468
  592  LAT   Au  970   0.612   1.836   3.264
  593  LAT   Au  971   0.612   1.632   3.468
  594  LAT   Au  972   0.816   1.632   3.264
  595  LAT   Au  973   1.020   1.836   3.264
  596  LAT   Au  974   0.816   1.836   3.468
  597  LAT   Au  975   1.020   1.632   3.468
  598  LAT   Au  976   1.224   1.632   3.264
  599  LAT   Au  977   1.428   1.836   3.264
  600  LAT   Au  978   1.224   1.836   3.468
  601  LAT   Au  979   1.428   1.632   3.468
  602  LAT   Au  980   1.632   1.632   3.264
  603  LAT   Au  981   1.836   1.836   3.264
  604  LAT   Au  982   1.632   1.836   3.468
  605  LAT   Au  983   1.836   1.632   3.468
  606  LAT   Au  984   2.040   1.632   3.264
  607  LAT   Au  985   2.244   1.836   3.264
  608  LAT   Au  986   2.040   1.836   3.468
  609  LAT   Au  987   2.244   1.632   3.468
  610  LAT   Au  988   0.816   2.040   3.264
  611  LAT   Au  989   1.020   2.244   3.264
  612  LAT   Au  990   1.020   2.040   3.468
  613  LAT   Au  991   1.224   2.040   3.264
  614  LAT   Au  992   1.428   2.244   3.264
  615  LAT   Au  993   1.224   2.244   3.468
  616  LAT   Au  994   1.428   2.040   3.468
  617  LAT   Au  995   1.632   2.040   3.264
  618  LAT   Au  996   1.836   2.244   3.264
  619  LAT   Au  997   1.632   2.244   3.468
  620  LAT   Au  998   1.836   2.040   3.468
  621  LAT   Au  999   2.040   2.040   3.264
  622  LAT   Au 1000   1.020   0.612   3.672
  623  LAT   Au 1001   1.428   0.612   3.672
  624  LAT   Au 1002   1.224   0.612   3.876
  625  LAT   Au 1003   1.836   0.612   3.672
  626  LAT   Au 1004   1.632   0.612   3.876
  627  LAT   Au 1005   0.612   1.020   3.672
  628  LAT   Au 1006   0.816   0.816   3.672
  629  LAT   Au 1007   1.020   1.020   3.672
  630  LAT   Au 1008   0.816   1.020   3.876
  631  LAT   Au 1009   1.020   0.816   3.876
  632  LAT   Au 1010   1.224   0.816   3.672
  633  LAT   Au 1011   1.428   1.020   3.672
  634  LAT   Au 1012   1.224   1.020   3.876
  635  LAT   Au 1013   1.428   0.816   3.876
  636  LAT   Au 1014   1.632   0.816   3.672
  637  LAT   Au 1015   1.836   1.020   3.672
  638  LAT   Au 1016   1.632   1.020   3.876
  639  LAT   Au 1017   1.836   0.816   3.876
  640  LAT   Au 1018   2.040   0.816   3.672
  641  LAT   Au 1019   2.244   1.020   3.672
  642  LAT   Au 1020   2.040   1.020   3.876
  643  LAT   Au 1021   0.612   1.428   3.672
  644  LAT   Au 1022   0.612   1.224   3.876
  645  LAT   Au 1023   0.816   1.224   3.672
  646  LAT   Au 1024   1.020   1.428   3.672
  647  LAT   Au 1025   0.816   1.428   3.876
  648  LAT   Au 1026   1.020   1.224   3.876
  649  LAT   Au 1027   1.224   1.224   3.672
  650  LAT   Au 1028   1.428   1.428   3.672
  651  LAT   Au 1029   1.224   1.428   3.876
  652  LAT   Au 1030   1.428   1.224   3.876
  653  LAT   Au 1031   1.632   1.224   3.672
  654  LAT   Au 1032   1.836   1.428   3.672
  655  LAT   Au 1033   1.632   1.428   3.876
  656  LAT   Au 1034   1.836   1.224   3.876
  657  LAT   Au 1035   2.040   1.224   3.672
  658  LAT   Au 1036   2.244   1.428   3.672
  659  LAT   Au 1037   2.040   1.428   3.876
  660  LAT   Au 1038   2.244   1.224   3.876
  661  LAT   Au 1039   0.612   1.836   3.672
  662  LAT   Au 1040   0.612   1.632   3.876
  663  LAT   Au 1041   0.816   1.632   3.672
  664  LAT   Au 1042   1.020   1.836   3.672
  665  LAT   Au 1043   0.816   1.836   3.876
  666  LAT   Au 1044   1.020   1.632   3.876
  667  LAT   Au 1045   1.224   1.632   3.672
  668  LAT   Au 1046   1.428   1.836   3.672
  669  LAT   Au 1047   1.224   1.836   3.876
  670  LAT   Au 1048   1.428   1.632   3.876
  671  LAT   Au 1049   1.632   1.632   3.672
  672  LAT   Au 1050   1.836   1.836   3.672
  673  LAT   Au 1051   1.632   1.836   3.876
  674  LAT   Au 1052   1.836   1.632   3.876
  675  LAT   Au 1053   2.040   1.632   3.672
  676  LAT   Au 1054   2.244   1.836   3.672
  677  LAT   Au 1055   2.040   1.836   3.876
  678  LAT   Au 1056   2.244   1.632   3.876
  679  LAT   Au 1057   0.816   2.040   3.672
  680  LAT   Au 1058   1.020   2.244   3.672
  681  LAT   Au 1059   1.020   2.040   3.876
  682  LAT   Au 1060   1.224   2.040   3.672
  683  LAT   Au 1061   1.428   2.244   3.672
  684  LAT   Au 1062   1.224   2.244   3.876
  685  LAT   Au 1063   1.428   2.040   3.876
  686  LAT   Au 1064   1.632   2.040   3.672
  687  LAT   Au 1065   1.836   2.244   3.672
  688  LAT   Au 1066   1.632   2.244   3.876
  689  LAT   Au 1067   1.836   2.040   3.876
  690  LAT   Au 1068   2.040   2.040   3.672
  691  LAT   Au 1069   1.020   0.612   4.080
  692  LAT   Au 1070   1.428   0.612   4.080
  693  LAT   Au 1071   1.224   0.612   4.284
  694  LAT   Au 1072   1.836   0.612   4.080
  695  LAT   Au 1073   1.632   0.612   4.284
  696  LAT   Au 1074   0.612   1.020   4.080
  697  LAT   Au 1075   0.816   0.816   4.080
  698  LAT   Au 1076   1.020   1.020   4.080
  699  LAT   Au 1077   0.816   1.020   4.284
  700  LAT   Au 1078   1.020   0.816   4.284
  701  LAT   Au 1079   1.224   0.816   4.080
  702  LAT   Au 1080   1.428   1.020   4.080
  703  LAT   Au 1081   1.224   1.020   4.284
  704  LAT   Au 1082   1.428   0.816   4.284
  705  LAT   Au 1083   1.632   0.816   4.080
  706  LAT   Au 1084   1.836   1.020   4.080
  707  LAT   Au 1085   1.632   1.020   4.284
  708  LAT   Au 1086   1.836   0.816   4.284
  709  LAT   Au 1087   2.040   0.816   4.080
  710  LAT   Au 1088   2.244   1.020   4.080
  711  LAT   Au 1089   2.040   1.020   4.284
  712  LAT   Au 1090   0.612   1.428   4.080
  713  LAT   Au 1091   0.612   1.224   4.284
  714  LAT   Au 1092   0.816   1.224   4.080
  715  LAT   Au 1093   1.020   1.428   4.080
  716  LAT   Au 1094   0.816   1.428   4.284
  717  LAT   Au 1095   1.020   1.224   4.284
  718  LAT   Au 1096   1.224   1.224   4.080
  719  LAT   Au 1097   1.428   1.428   4.080
  720  LAT   Au 1098   1.224   1.428   4.284
  721  LAT   Au 1099   1.428   1.224   4.284
  722  LAT   Au 1100   1.632   1.224   4.080
  723  LAT   Au 1101   1.836   1.428   4.080
  724  LAT   Au 1102   1.632   1.428   4.284
  725  LAT   Au 1103   1.836   1.224   4.284
  726  LAT   Au 1104   2.040   1.224   4.080
  727  LAT   Au 1105   2.244   1.428   4.080
  728  LAT   Au 1106   2.040   1.428   4.284
  729  LAT   Au 1107   2.244   1.224   4.284
  730  LAT   Au 1108   0.612   1.836   4.080
  731  LAT   Au 1109   0.612   1.632   4.284
  732  LAT   Au 1110   0.816   1.632   4.080
  733  LAT   Au 1111   1.020   1.836   4.080
  734  LAT   Au 1112   0.816   1.836   4.284
  735  LAT   Au 1113   1.020   1.632   4.284
  736  LAT   Au 1114   1.224   1.632   4.080
  737  LAT   Au 1115   1.428   1.836   4.080
  738  LAT   Au 1116   1.224   1.836   4.284
  739  LAT   Au 1117   1.428   1.632   4.284
  740  LAT   Au 1118   1.632   1.632   4.080
  741  LAT   Au 1119   1.836   1.836   4.080
  742  LAT   Au 1120   1.632   1.836   4.284
  743  LAT   Au 1121   1.836   1.632   4.284
  744  LAT   Au 1122   2.040   1.632   4.080
  745  LAT   Au 1123   2.244   1.836   4.080
  746  LAT   Au 1124   2.040   1.836   4.284
  747  LAT   Au 1125   2.244   1.632   4.284
  748  LAT   Au 1126   0.816   2.040   4.080
  749  LAT   Au 1127   1.020   2.244   4.080
  750  LAT   Au 1128   1.020   2.040   4.284
  751  LAT   Au 1129   1.224   2.040   4.080
  752  LAT   Au 1130   1.428   2.244   4.080
  753  LAT   Au 1131   1.224   2.244   4.284
  754  LAT   Au 1132   1.428   2.040   4.284
  755  LAT   Au 1133   1.632   2.040   4.080
  756  LAT   Au 1134   1.836   2.244   4.080
  757  LAT   Au 1135   1.632   2.244   4.284
  758  LAT   Au 1136   1.836   2.040   4.284
  759  LAT   Au 1137   2.040   2.040   4.080
  760  LAT   Au 1138   1.020   0.612   4.488
  761  LAT   Au 1139   1.428   0.612   4.488
  762  LAT   Au 1140   1.224   0.612   4.692
  763  LAT   Au 1141   1.836   0.612   4.488
  764  LAT   Au 1142   1.632   0.612   4.692
  765  LAT   Au 1143   0.612   1.020   4.488
  766  LAT   Au 1144   0.816   0.816   4.488
  767  LAT   Au 1145   1.020   1.020   4.488
  768  LAT   Au 1146   0.816   1.020   4.692
  769  LAT   Au 1147   1.020   0.816   4.692
  770  LAT   Au 1148   1.224   0.816   4.488
  771  LAT   Au 1149   1.428   1.020   4.488
  772  LAT   Au 1150   1.224   1.020   4.692
  773  LAT   Au 1151   1.428   0.816   4.692
  774  LAT   Au 1152   1.632   0.816   4.488
  775  LAT   Au 1153   1.836   1.020   4.488
  776  LAT   Au 1154   1.632   1.020   4.692
  777  LAT   Au 1155   1.836   0.816   4.692
  778  LAT   Au 1156   2.040   0.816   4.488
  779  LAT   Au 1157   2.244   1.020   4.488
  780  LAT   Au 1158   2.040   1.020   4.692
  781  LAT   Au 1159   0.612   1.428   4.488
  782  LAT   Au 1160   0.612   1.224   4.692
  783  LAT   Au 1161   0.816   1.224   4.488
  784  LAT   Au 1162   1.020   1.428   4.488
  785  LAT   Au 1163   0.816   1.428   4.692
  786  LAT   Au 1164   1.020   1.224   4.692
  787  LAT   Au 1165   1.224   1.224   4.488
  788  LAT   Au 1166   1.428   1.428   4.488
  789  LAT   Au 1167   1.224   1.428   4.692
  790  LAT   Au 1168   1.428   1.224   4.692
  791  LAT   Au 1169   1.632   1.224   4.488
  792  LAT   Au 1170   1.836   1.428   4.488
  793  LAT   Au 1171   1.632   1.428   4.692
  794  LAT   Au 1172   1.836   1.224   4.692
  795  LAT   Au 1173   2.040   1.224   4.488
  796  LAT   Au 1174   2.244   1.428   4.488
  797  LAT   Au 1175   2.040   1.428   4.692
  798  LAT   Au 1176   2.244   1.224   4.692
  799  LAT   Au 1177   0.612   1.836   4.488
  800  LAT   Au 1178   0.612   1.632   4.692
  801  LAT   Au 1179   0.816   1.632   4.488
  802  LAT   Au 1180   1.020   1.836   4.488
  803  LAT   Au 1181   0.816   1.836   4.692
  804  LAT   Au 1182   1.020   1.632   4.692
  805  LAT   Au 1183   1.224   1.632   4.488
  806  LAT   Au 1184   1.428   1.836   4.488
  807  LAT   Au 1185   1.224   1.836   4.692
  808  LAT   Au 1186   1.428   1.632   4.692
  809  LAT   Au 1187   1.632   1.632   4.488
  810  LAT   Au 1188   1.836   1.836   4.488
  811  LAT   Au 1189   1.632   1.836   4.692
  812  LAT   Au 1190   1.836   1.632   4.692
  813  LAT   Au 1191   2.040   1.632   4.488
  814  LAT   Au 1192   2.244   1.836   4.488
  815  LAT   Au 1193   2.040   1.836   4.692
  816  LAT   Au 1194   2.244   1.632   4.692
  817  LAT   Au 1195   0.816   2.040   4.488
  818  LAT   Au 1196   1.020   2.244   4.488
  819  LAT   Au 1197   1.020   2.040   4.692
  820  LAT   Au 1198   1.224   2.040   4.488
  821  LAT   Au 1199   1.428   2.244   4.488
  822  LAT   Au 1200   1.224   2.244   4.692
  823  LAT   Au 1201   1.428   2.040   4.692
  824  LAT   Au 1202   1.632   2.040   4.488
  825  LAT   Au 1203   1.836   2.244   4.488
  826  LAT   Au 1204   1.632   2.244   4.692
  827  LAT   Au 1205   1.836   2.040   4.692
  828  LAT   Au 1206   2.040   2.040   4.488
  10.00000  10.00000  10.00000
