[ moleculetype ]
polyGraft            3

[ atoms ]
1 CM2 1 PE C1 1 0.000 12.011
2 CM2 1 PE C2 1 0.000 12.011
3 CM2 1 PE C3 1 0.000 12.011
4 CM2 1 PE C4 1 0.000 12.011
5 CM2 1 PE C5 1 0.000 12.011
6 CM2 1 PE C6 1 0.000 12.011
7 CM2 1 PE C1 1 0.000 12.011
8 CM2 1 PE C2 1 0.000 12.011
9 CM2 1 PE C3 1 0.000 12.011
10 CM2 1 PE C4 1 0.000 12.011
11 CM2 1 PE C5 1 0.000 12.011
12 CM2 1 PE C6 1 0.000 12.011
13 CM2 1 PE C1 1 0.000 12.011
14 CM2 1 PE C2 1 0.000 12.011
15 CM2 1 PE C3 1 0.000 12.011
16 CM2 1 PE C4 1 0.000 12.011
17 CM2 1 PE C5 1 0.000 12.011
18 CM2 1 PE C6 1 0.000 12.011
19 CM2 1 PE C1 1 0.000 12.011
20 CM2 1 PE C2 1 0.000 12.011
21 CM2 1 PE C3 1 0.000 12.011
22 CM2 1 PE C4 1 0.000 12.011
23 CM2 1 PE C5 1 0.000 12.011
24 CM2 1 PE C6 1 0.000 12.011
25 CM2 1 PE C1 1 0.000 12.011
26 CM2 1 PE C2 1 0.000 12.011
27 CM2 1 PE C3 1 0.000 12.011
28 CM2 1 PE C4 1 0.000 12.011
29 CM2 1 PE C5 1 0.000 12.011
30 CM2 1 PE C6 1 0.000 12.011
31 CM2 1 PE C1 1 0.000 12.011
32 CM2 1 PE C2 1 0.000 12.011
33 CM2 1 PE C3 1 0.000 12.011
34 CM2 1 PE C4 1 0.000 12.011
35 CM2 1 PE C5 1 0.000 12.011
36 CM2 1 PE C6 1 0.000 12.011
37 CM2 1 PE C1 1 0.000 12.011
38 CM2 1 PE C2 1 0.000 12.011
39 CM2 1 PE C3 1 0.000 12.011
40 CM2 1 PE C4 1 0.000 12.011
41 CM2 1 PE C5 1 0.000 12.011
42 CM2 1 PE C6 1 0.000 12.011
43 CM2 1 PE C1 1 0.000 12.011
44 CM2 1 PE C2 1 0.000 12.011
45 CM2 1 PE C3 1 0.000 12.011
46 CM2 1 PE C4 1 0.000 12.011
47 CM2 1 PE C5 1 0.000 12.011
48 CM2 1 PE C6 1 0.000 12.011
49 CM2 1 PE C1 1 0.000 12.011
50 CM2 1 PE C2 1 0.000 12.011
51 CM2 1 PE C3 1 0.000 12.011
52 CM2 1 PE C4 1 0.000 12.011
53 CM2 1 PE C5 1 0.000 12.011
54 CM2 1 PE C6 1 0.000 12.011
55 CM2 1 PE C1 1 0.000 12.011
56 CM2 1 PE C2 1 0.000 12.011
57 CM2 1 PE C3 1 0.000 12.011
58 CM2 1 PE C4 1 0.000 12.011
59 CM2 1 PE C5 1 0.000 12.011
60 CM2 1 PE C6 1 0.000 12.011
61 CM2 1 PE C1 1 0.000 12.011
62 CM2 1 PE C2 1 0.000 12.011
63 CM2 1 PE C3 1 0.000 12.011
64 CM2 1 PE C4 1 0.000 12.011
65 CM2 1 PE C5 1 0.000 12.011
66 CM2 1 PE C6 1 0.000 12.011
67 CM2 1 PE C1 1 0.000 12.011
68 CM2 1 PE C2 1 0.000 12.011
69 CM2 1 PE C3 1 0.000 12.011
70 CM2 1 PE C4 1 0.000 12.011
71 CM2 1 PE C5 1 0.000 12.011
72 CM2 1 PE C6 1 0.000 12.011
73 CM2 1 PE C1 1 0.000 12.011
74 CM2 1 PE C2 1 0.000 12.011
75 CM2 1 PE C3 1 0.000 12.011
76 CM2 1 PE C4 1 0.000 12.011
77 CM2 1 PE C5 1 0.000 12.011
78 CM2 1 PE C6 1 0.000 12.011
79 CM2 1 PE C1 1 0.000 12.011
80 CM2 1 PE C2 1 0.000 12.011
81 CM2 1 PE C3 1 0.000 12.011
82 CM2 1 PE C4 1 0.000 12.011
83 CM2 1 PE C5 1 0.000 12.011
84 CM2 1 PE C6 1 0.000 12.011
85 CM2 1 PE C1 1 0.000 12.011
86 CM2 1 PE C2 1 0.000 12.011
87 CM2 1 PE C3 1 0.000 12.011
88 CM2 1 PE C4 1 0.000 12.011
89 CM2 1 PE C5 1 0.000 12.011
90 CM2 1 PE C6 1 0.000 12.011
91 CM2 1 PE C1 1 0.000 12.011
92 CM2 1 PE C2 1 0.000 12.011
93 CM2 1 PE C3 1 0.000 12.011
94 CM2 1 PE C4 1 0.000 12.011
95 CM2 1 PE C5 1 0.000 12.011
96 CM2 1 PE C6 1 0.000 12.011
97 CM2 1 PE C1 1 0.000 12.011
98 CM2 1 PE C2 1 0.000 12.011
99 CM2 1 PE C3 1 0.000 12.011
100 CM2 1 PE C4 1 0.000 12.011
101 CM2 1 PE C5 1 0.000 12.011
102 CM2 1 PE C6 1 0.000 12.011
103 CM2 1 PE C1 1 0.000 12.011
104 CM2 1 PE C2 1 0.000 12.011
105 CM2 1 PE C3 1 0.000 12.011
106 CM2 1 PE C4 1 0.000 12.011
107 CM2 1 PE C5 1 0.000 12.011
108 CM2 1 PE C6 1 0.000 12.011
109 CM2 1 PE C1 1 0.000 12.011
110 CM2 1 PE C2 1 0.000 12.011
111 CM2 1 PE C3 1 0.000 12.011
112 CM2 1 PE C4 1 0.000 12.011
113 CM2 1 PE C5 1 0.000 12.011
114 CM2 1 PE C6 1 0.000 12.011
115 CM2 1 PE C1 1 0.000 12.011
116 CM2 1 PE C2 1 0.000 12.011
117 CM2 1 PE C3 1 0.000 12.011
118 CM2 1 PE C4 1 0.000 12.011
119 CM2 1 PE C5 1 0.000 12.011
120 CM2 1 PE C6 1 0.000 12.011
121 CM2 1 PE C1 1 0.000 12.011
122 CM2 1 PE C2 1 0.000 12.011
123 CM2 1 PE C3 1 0.000 12.011
124 CM2 1 PE C4 1 0.000 12.011
125 CM2 1 PE C5 1 0.000 12.011
126 CM2 1 PE C6 1 0.000 12.011
127 CM2 1 PE C1 1 0.000 12.011
128 CM2 1 PE C2 1 0.000 12.011
129 CM2 1 PE C3 1 0.000 12.011
130 CM2 1 PE C4 1 0.000 12.011
131 CM2 1 PE C5 1 0.000 12.011
132 CM2 1 PE C6 1 0.000 12.011
133 CM2 1 PE C1 1 0.000 12.011
134 CM2 1 PE C2 1 0.000 12.011
135 CM2 1 PE C3 1 0.000 12.011
136 CM2 1 PE C4 1 0.000 12.011
137 CM2 1 PE C5 1 0.000 12.011
138 CM2 1 PE C6 1 0.000 12.011
139 CM2 1 PE C1 1 0.000 12.011
140 CM2 1 PE C2 1 0.000 12.011
141 CM2 1 PE C3 1 0.000 12.011
142 CM2 1 PE C4 1 0.000 12.011
143 CM2 1 PE C5 1 0.000 12.011
144 CM2 1 PE C6 1 0.000 12.011
145 CM2 1 PE C1 1 0.000 12.011
146 CM2 1 PE C2 1 0.000 12.011
147 CM2 1 PE C3 1 0.000 12.011
148 CM2 1 PE C4 1 0.000 12.011
149 CM2 1 PE C5 1 0.000 12.011
150 CM2 1 PE C6 1 0.000 12.011
151 CM2 1 PE C1 1 0.000 12.011
152 CM2 1 PE C2 1 0.000 12.011
153 CM2 1 PE C3 1 0.000 12.011
154 CM2 1 PE C4 1 0.000 12.011
155 CM2 1 PE C5 1 0.000 12.011
156 CM2 1 PE C6 1 0.000 12.011
157 CM2 1 PE C1 1 0.000 12.011
158 CM2 1 PE C2 1 0.000 12.011
159 CM2 1 PE C3 1 0.000 12.011
160 CM2 1 PE C4 1 0.000 12.011
161 CM2 1 PE C5 1 0.000 12.011
162 CM2 1 PE C6 1 0.000 12.011
163 CM2 1 PE C1 1 0.000 12.011
164 CM2 1 PE C2 1 0.000 12.011
165 CM2 1 PE C3 1 0.000 12.011
166 CM2 1 PE C4 1 0.000 12.011
167 CM2 1 PE C5 1 0.000 12.011
168 CM2 1 PE C6 1 0.000 12.011
169 CM2 1 PE C1 1 0.000 12.011
170 CM2 1 PE C2 1 0.000 12.011
171 CM2 1 PE C3 1 0.000 12.011
172 CM2 1 PE C4 1 0.000 12.011
173 CM2 1 PE C5 1 0.000 12.011
174 CM2 1 PE C6 1 0.000 12.011
175 CM2 1 PE C1 1 0.000 12.011
176 CM2 1 PE C2 1 0.000 12.011
177 CM2 1 PE C3 1 0.000 12.011
178 CM2 1 PE C4 1 0.000 12.011
179 CM2 1 PE C5 1 0.000 12.011
180 CM2 1 PE C6 1 0.000 12.011
181 CM2 1 PE C1 1 0.000 12.011
182 CM2 1 PE C2 1 0.000 12.011
183 CM2 1 PE C3 1 0.000 12.011
184 CM2 1 PE C4 1 0.000 12.011
185 CM2 1 PE C5 1 0.000 12.011
186 CM2 1 PE C6 1 0.000 12.011
187 CM2 1 PE C1 1 0.000 12.011
188 CM2 1 PE C2 1 0.000 12.011
189 CM2 1 PE C3 1 0.000 12.011
190 CM2 1 PE C4 1 0.000 12.011
191 CM2 1 PE C5 1 0.000 12.011
192 CM2 1 PE C6 1 0.000 12.011
193 CM2 1 PE C1 1 0.000 12.011
194 CM2 1 PE C2 1 0.000 12.011
195 CM2 1 PE C3 1 0.000 12.011
196 CM2 1 PE C4 1 0.000 12.011
197 CM2 1 PE C5 1 0.000 12.011
198 CM2 1 PE C6 1 0.000 12.011
199 CM2 1 PE C1 1 0.000 12.011
200 CM2 1 PE C2 1 0.000 12.011
201 CM2 1 PE C3 1 0.000 12.011
202 CM2 1 PE C4 1 0.000 12.011
203 CM2 1 PE C5 1 0.000 12.011
204 CM2 1 PE C6 1 0.000 12.011
205 CM2 1 PE C1 1 0.000 12.011
206 CM2 1 PE C2 1 0.000 12.011
207 CM2 1 PE C3 1 0.000 12.011
208 CM2 1 PE C4 1 0.000 12.011
209 CM2 1 PE C5 1 0.000 12.011
210 CM2 1 PE C6 1 0.000 12.011
211 CM2 1 PE C1 1 0.000 12.011
212 CM2 1 PE C2 1 0.000 12.011
213 CM2 1 PE C3 1 0.000 12.011
214 CM2 1 PE C4 1 0.000 12.011
215 CM2 1 PE C5 1 0.000 12.011
216 CM2 1 PE C6 1 0.000 12.011
217 CM2 1 PE C1 1 0.000 12.011
218 CM2 1 PE C2 1 0.000 12.011
219 CM2 1 PE C3 1 0.000 12.011
220 CM2 1 PE C4 1 0.000 12.011
221 CM2 1 PE C5 1 0.000 12.011
222 CM2 1 PE C6 1 0.000 12.011
223 CM2 1 PE C1 1 0.000 12.011
224 CM2 1 PE C2 1 0.000 12.011
225 CM2 1 PE C3 1 0.000 12.011
226 CM2 1 PE C4 1 0.000 12.011
227 CM2 1 PE C5 1 0.000 12.011
228 CM2 1 PE C6 1 0.000 12.011
229 CM2 1 PE C1 1 0.000 12.011
230 CM2 1 PE C2 1 0.000 12.011
231 CM2 1 PE C3 1 0.000 12.011
232 CM2 1 PE C4 1 0.000 12.011
233 CM2 1 PE C5 1 0.000 12.011
234 CM2 1 PE C6 1 0.000 12.011
235 CM2 1 PE C1 1 0.000 12.011
236 CM2 1 PE C2 1 0.000 12.011
237 CM2 1 PE C3 1 0.000 12.011
238 CM2 1 PE C4 1 0.000 12.011
239 CM2 1 PE C5 1 0.000 12.011
240 CM2 1 PE C6 1 0.000 12.011
241 CM2 1 PE C1 1 0.000 12.011
242 CM2 1 PE C2 1 0.000 12.011
243 CM2 1 PE C3 1 0.000 12.011
244 CM2 1 PE C4 1 0.000 12.011
245 CM2 1 PE C5 1 0.000 12.011
246 CM2 1 PE C6 1 0.000 12.011
247 CM2 1 PE C1 1 0.000 12.011
248 CM2 1 PE C2 1 0.000 12.011
249 CM2 1 PE C3 1 0.000 12.011
250 CM2 1 PE C4 1 0.000 12.011
251 CM2 1 PE C5 1 0.000 12.011
252 CM2 1 PE C6 1 0.000 12.011
253 CM2 1 PE C1 1 0.000 12.011
254 CM2 1 PE C2 1 0.000 12.011
255 CM2 1 PE C3 1 0.000 12.011
256 CM2 1 PE C4 1 0.000 12.011
257 CM2 1 PE C5 1 0.000 12.011
258 CM2 1 PE C6 1 0.000 12.011
259 CM2 1 PE C1 1 0.000 12.011
260 CM2 1 PE C2 1 0.000 12.011
261 CM2 1 PE C3 1 0.000 12.011
262 CM2 1 PE C4 1 0.000 12.011
263 CM2 1 PE C5 1 0.000 12.011
264 CM2 1 PE C6 1 0.000 12.011
265 CM2 1 PE C1 1 0.000 12.011
266 CM2 1 PE C2 1 0.000 12.011
267 CM2 1 PE C3 1 0.000 12.011
268 CM2 1 PE C4 1 0.000 12.011
269 CM2 1 PE C5 1 0.000 12.011
270 CM2 1 PE C6 1 0.000 12.011
271 CM2 1 PE C1 1 0.000 12.011
272 CM2 1 PE C2 1 0.000 12.011
273 CM2 1 PE C3 1 0.000 12.011
274 CM2 1 PE C4 1 0.000 12.011
275 CM2 1 PE C5 1 0.000 12.011
276 CM2 1 PE C6 1 0.000 12.011
277 CM2 1 PE C1 1 0.000 12.011
278 CM2 1 PE C2 1 0.000 12.011
279 CM2 1 PE C3 1 0.000 12.011
280 CM2 1 PE C4 1 0.000 12.011
281 CM2 1 PE C5 1 0.000 12.011
282 CM2 1 PE C6 1 0.000 12.011
283 CM2 1 PE C1 1 0.000 12.011
284 CM2 1 PE C2 1 0.000 12.011
285 CM2 1 PE C3 1 0.000 12.011
286 CM2 1 PE C4 1 0.000 12.011
287 CM2 1 PE C5 1 0.000 12.011
288 CM2 1 PE C6 1 0.000 12.011
289 CM2 1 PE C1 1 0.000 12.011
290 CM2 1 PE C2 1 0.000 12.011
291 CM2 1 PE C3 1 0.000 12.011
292 CM2 1 PE C4 1 0.000 12.011
293 CM2 1 PE C5 1 0.000 12.011
294 CM2 1 PE C6 1 0.000 12.011
295 CM2 1 PE C1 1 0.000 12.011
296 CM2 1 PE C2 1 0.000 12.011
297 CM2 1 PE C3 1 0.000 12.011
298 CM2 1 PE C4 1 0.000 12.011
299 CM2 1 PE C5 1 0.000 12.011
300 CM2 1 PE C6 1 0.000 12.011
301 CM2 1 PE C1 1 0.000 12.011
302 CM2 1 PE C2 1 0.000 12.011
303 CM2 1 PE C3 1 0.000 12.011
304 CM2 1 PE C4 1 0.000 12.011
305 CM2 1 PE C5 1 0.000 12.011
306 CM2 1 PE C6 1 0.000 12.011
307 CM2 1 PE C1 1 0.000 12.011
308 CM2 1 PE C2 1 0.000 12.011
309 CM2 1 PE C3 1 0.000 12.011
310 CM2 1 PE C4 1 0.000 12.011
311 CM2 1 PE C5 1 0.000 12.011
312 CM2 1 PE C6 1 0.000 12.011
313 CM2 1 PE C1 1 0.000 12.011
314 CM2 1 PE C2 1 0.000 12.011
315 CM2 1 PE C3 1 0.000 12.011
316 CM2 1 PE C4 1 0.000 12.011
317 CM2 1 PE C5 1 0.000 12.011
318 CM2 1 PE C6 1 0.000 12.011
319 CM2 1 PE C1 1 0.000 12.011
320 CM2 1 PE C2 1 0.000 12.011
321 CM2 1 PE C3 1 0.000 12.011
322 CM2 1 PE C4 1 0.000 12.011
323 CM2 1 PE C5 1 0.000 12.011
324 CM2 1 PE C6 1 0.000 12.011
325 CM2 1 PE C1 1 0.000 12.011
326 CM2 1 PE C2 1 0.000 12.011
327 CM2 1 PE C3 1 0.000 12.011
328 CM2 1 PE C4 1 0.000 12.011
329 CM2 1 PE C5 1 0.000 12.011
330 CM2 1 PE C6 1 0.000 12.011
331 CM2 1 PE C1 1 0.000 12.011
332 CM2 1 PE C2 1 0.000 12.011
333 CM2 1 PE C3 1 0.000 12.011
334 CM2 1 PE C4 1 0.000 12.011
335 CM2 1 PE C5 1 0.000 12.011
336 CM2 1 PE C6 1 0.000 12.011
337 CM2 1 PE C1 1 0.000 12.011
338 CM2 1 PE C2 1 0.000 12.011
339 CM2 1 PE C3 1 0.000 12.011
340 CM2 1 PE C4 1 0.000 12.011
341 CM2 1 PE C5 1 0.000 12.011
342 CM2 1 PE C6 1 0.000 12.011
343 CM2 1 PE C1 1 0.000 12.011
344 CM2 1 PE C2 1 0.000 12.011
345 CM2 1 PE C3 1 0.000 12.011
346 CM2 1 PE C4 1 0.000 12.011
347 CM2 1 PE C5 1 0.000 12.011
348 CM2 1 PE C6 1 0.000 12.011
349 CM2 1 PE C1 1 0.000 12.011
350 CM2 1 PE C2 1 0.000 12.011
351 CM2 1 PE C3 1 0.000 12.011
352 CM2 1 PE C4 1 0.000 12.011
353 CM2 1 PE C5 1 0.000 12.011
354 CM2 1 PE C6 1 0.000 12.011
355 CM2 1 PE C1 1 0.000 12.011
356 CM2 1 PE C2 1 0.000 12.011
357 CM2 1 PE C3 1 0.000 12.011
358 CM2 1 PE C4 1 0.000 12.011
359 CM2 1 PE C5 1 0.000 12.011
360 CM2 1 PE C6 1 0.000 12.011
361 CM2 1 PE C1 1 0.000 12.011
362 CM2 1 PE C2 1 0.000 12.011
363 CM2 1 PE C3 1 0.000 12.011
364 CM2 1 PE C4 1 0.000 12.011
365 CM2 1 PE C5 1 0.000 12.011
366 CM2 1 PE C6 1 0.000 12.011
367 CM2 1 PE C1 1 0.000 12.011
368 CM2 1 PE C2 1 0.000 12.011
369 CM2 1 PE C3 1 0.000 12.011
370 CM2 1 PE C4 1 0.000 12.011
371 CM2 1 PE C5 1 0.000 12.011
372 CM2 1 PE C6 1 0.000 12.011
373 CM2 1 PE C1 1 0.000 12.011
374 CM2 1 PE C2 1 0.000 12.011
375 CM2 1 PE C3 1 0.000 12.011
376 CM2 1 PE C4 1 0.000 12.011
377 CM2 1 PE C5 1 0.000 12.011
378 CM2 1 PE C6 1 0.000 12.011
;sub
379 Au 0 LAT Au 0 0.000 196.96654
380 Au 0 LAT Au 0 0.000 196.96654
381 Au 0 LAT Au 0 0.000 196.96654
382 Au 0 LAT Au 0 0.000 196.96654
383 Au 0 LAT Au 0 0.000 196.96654
384 Au 0 LAT Au 0 0.000 196.96654
385 Au 0 LAT Au 0 0.000 196.96654
386 Au 0 LAT Au 0 0.000 196.96654
387 Au 0 LAT Au 0 0.000 196.96654
388 Au 0 LAT Au 0 0.000 196.96654
389 Au 0 LAT Au 0 0.000 196.96654
390 Au 0 LAT Au 0 0.000 196.96654
391 Au 0 LAT Au 0 0.000 196.96654
392 Au 0 LAT Au 0 0.000 196.96654
393 Au 0 LAT Au 0 0.000 196.96654
394 Au 0 LAT Au 0 0.000 196.96654
395 Au 0 LAT Au 0 0.000 196.96654
396 Au 0 LAT Au 0 0.000 196.96654
397 Au 0 LAT Au 0 0.000 196.96654
398 Au 0 LAT Au 0 0.000 196.96654
399 Au 0 LAT Au 0 0.000 196.96654
400 Au 0 LAT Au 0 0.000 196.96654
401 Au 0 LAT Au 0 0.000 196.96654
402 Au 0 LAT Au 0 0.000 196.96654
403 Au 0 LAT Au 0 0.000 196.96654
404 Au 0 LAT Au 0 0.000 196.96654
405 Au 0 LAT Au 0 0.000 196.96654
406 Au 0 LAT Au 0 0.000 196.96654
407 Au 0 LAT Au 0 0.000 196.96654
408 Au 0 LAT Au 0 0.000 196.96654
409 Au 0 LAT Au 0 0.000 196.96654
410 Au 0 LAT Au 0 0.000 196.96654
411 Au 0 LAT Au 0 0.000 196.96654
412 Au 0 LAT Au 0 0.000 196.96654
413 Au 0 LAT Au 0 0.000 196.96654
414 Au 0 LAT Au 0 0.000 196.96654
415 Au 0 LAT Au 0 0.000 196.96654
416 Au 0 LAT Au 0 0.000 196.96654
417 Au 0 LAT Au 0 0.000 196.96654
418 Au 0 LAT Au 0 0.000 196.96654
419 Au 0 LAT Au 0 0.000 196.96654
420 Au 0 LAT Au 0 0.000 196.96654
421 Au 0 LAT Au 0 0.000 196.96654
422 Au 0 LAT Au 0 0.000 196.96654
423 Au 0 LAT Au 0 0.000 196.96654
424 Au 0 LAT Au 0 0.000 196.96654
425 Au 0 LAT Au 0 0.000 196.96654
426 Au 0 LAT Au 0 0.000 196.96654
427 Au 0 LAT Au 0 0.000 196.96654
428 Au 0 LAT Au 0 0.000 196.96654
429 Au 0 LAT Au 0 0.000 196.96654
430 Au 0 LAT Au 0 0.000 196.96654
431 Au 0 LAT Au 0 0.000 196.96654
432 Au 0 LAT Au 0 0.000 196.96654
433 Au 0 LAT Au 0 0.000 196.96654
434 Au 0 LAT Au 0 0.000 196.96654
435 Au 0 LAT Au 0 0.000 196.96654
436 Au 0 LAT Au 0 0.000 196.96654
437 Au 0 LAT Au 0 0.000 196.96654
438 Au 0 LAT Au 0 0.000 196.96654
439 Au 0 LAT Au 0 0.000 196.96654
440 Au 0 LAT Au 0 0.000 196.96654
441 Au 0 LAT Au 0 0.000 196.96654
442 Au 0 LAT Au 0 0.000 196.96654
443 Au 0 LAT Au 0 0.000 196.96654
444 Au 0 LAT Au 0 0.000 196.96654
445 Au 0 LAT Au 0 0.000 196.96654
446 Au 0 LAT Au 0 0.000 196.96654
447 Au 0 LAT Au 0 0.000 196.96654
448 Au 0 LAT Au 0 0.000 196.96654
449 Au 0 LAT Au 0 0.000 196.96654
450 Au 0 LAT Au 0 0.000 196.96654
451 Au 0 LAT Au 0 0.000 196.96654
452 Au 0 LAT Au 0 0.000 196.96654
453 Au 0 LAT Au 0 0.000 196.96654
454 Au 0 LAT Au 0 0.000 196.96654
455 Au 0 LAT Au 0 0.000 196.96654
456 Au 0 LAT Au 0 0.000 196.96654
457 Au 0 LAT Au 0 0.000 196.96654
458 Au 0 LAT Au 0 0.000 196.96654
459 Au 0 LAT Au 0 0.000 196.96654
460 Au 0 LAT Au 0 0.000 196.96654
461 Au 0 LAT Au 0 0.000 196.96654
462 Au 0 LAT Au 0 0.000 196.96654
463 Au 0 LAT Au 0 0.000 196.96654
464 Au 0 LAT Au 0 0.000 196.96654
465 Au 0 LAT Au 0 0.000 196.96654
466 Au 0 LAT Au 0 0.000 196.96654
467 Au 0 LAT Au 0 0.000 196.96654
468 Au 0 LAT Au 0 0.000 196.96654
469 Au 0 LAT Au 0 0.000 196.96654
470 Au 0 LAT Au 0 0.000 196.96654
471 Au 0 LAT Au 0 0.000 196.96654
472 Au 0 LAT Au 0 0.000 196.96654
473 Au 0 LAT Au 0 0.000 196.96654
474 Au 0 LAT Au 0 0.000 196.96654
475 Au 0 LAT Au 0 0.000 196.96654
476 Au 0 LAT Au 0 0.000 196.96654
477 Au 0 LAT Au 0 0.000 196.96654
478 Au 0 LAT Au 0 0.000 196.96654
479 Au 0 LAT Au 0 0.000 196.96654
480 Au 0 LAT Au 0 0.000 196.96654
481 Au 0 LAT Au 0 0.000 196.96654
482 Au 0 LAT Au 0 0.000 196.96654
483 Au 0 LAT Au 0 0.000 196.96654
484 Au 0 LAT Au 0 0.000 196.96654
485 Au 0 LAT Au 0 0.000 196.96654
486 Au 0 LAT Au 0 0.000 196.96654
487 Au 0 LAT Au 0 0.000 196.96654
488 Au 0 LAT Au 0 0.000 196.96654
489 Au 0 LAT Au 0 0.000 196.96654
490 Au 0 LAT Au 0 0.000 196.96654
491 Au 0 LAT Au 0 0.000 196.96654
492 Au 0 LAT Au 0 0.000 196.96654
493 Au 0 LAT Au 0 0.000 196.96654
494 Au 0 LAT Au 0 0.000 196.96654
495 Au 0 LAT Au 0 0.000 196.96654
496 Au 0 LAT Au 0 0.000 196.96654
497 Au 0 LAT Au 0 0.000 196.96654
498 Au 0 LAT Au 0 0.000 196.96654
499 Au 0 LAT Au 0 0.000 196.96654
500 Au 0 LAT Au 0 0.000 196.96654
501 Au 0 LAT Au 0 0.000 196.96654
502 Au 0 LAT Au 0 0.000 196.96654
503 Au 0 LAT Au 0 0.000 196.96654
504 Au 0 LAT Au 0 0.000 196.96654
505 Au 0 LAT Au 0 0.000 196.96654
506 Au 0 LAT Au 0 0.000 196.96654
507 Au 0 LAT Au 0 0.000 196.96654
508 Au 0 LAT Au 0 0.000 196.96654
509 Au 0 LAT Au 0 0.000 196.96654
510 Au 0 LAT Au 0 0.000 196.96654
511 Au 0 LAT Au 0 0.000 196.96654
512 Au 0 LAT Au 0 0.000 196.96654
513 Au 0 LAT Au 0 0.000 196.96654
514 Au 0 LAT Au 0 0.000 196.96654
515 Au 0 LAT Au 0 0.000 196.96654
516 Au 0 LAT Au 0 0.000 196.96654
517 Au 0 LAT Au 0 0.000 196.96654
518 Au 0 LAT Au 0 0.000 196.96654
519 Au 0 LAT Au 0 0.000 196.96654
520 Au 0 LAT Au 0 0.000 196.96654
521 Au 0 LAT Au 0 0.000 196.96654
522 Au 0 LAT Au 0 0.000 196.96654
523 Au 0 LAT Au 0 0.000 196.96654
524 Au 0 LAT Au 0 0.000 196.96654
525 Au 0 LAT Au 0 0.000 196.96654
526 Au 0 LAT Au 0 0.000 196.96654
527 Au 0 LAT Au 0 0.000 196.96654
528 Au 0 LAT Au 0 0.000 196.96654
529 Au 0 LAT Au 0 0.000 196.96654
530 Au 0 LAT Au 0 0.000 196.96654
531 Au 0 LAT Au 0 0.000 196.96654
532 Au 0 LAT Au 0 0.000 196.96654
533 Au 0 LAT Au 0 0.000 196.96654
534 Au 0 LAT Au 0 0.000 196.96654
535 Au 0 LAT Au 0 0.000 196.96654
536 Au 0 LAT Au 0 0.000 196.96654
537 Au 0 LAT Au 0 0.000 196.96654
538 Au 0 LAT Au 0 0.000 196.96654
539 Au 0 LAT Au 0 0.000 196.96654
540 Au 0 LAT Au 0 0.000 196.96654
541 Au 0 LAT Au 0 0.000 196.96654
542 Au 0 LAT Au 0 0.000 196.96654
543 Au 0 LAT Au 0 0.000 196.96654
544 Au 0 LAT Au 0 0.000 196.96654
545 Au 0 LAT Au 0 0.000 196.96654
546 Au 0 LAT Au 0 0.000 196.96654
547 Au 0 LAT Au 0 0.000 196.96654
548 Au 0 LAT Au 0 0.000 196.96654
549 Au 0 LAT Au 0 0.000 196.96654
550 Au 0 LAT Au 0 0.000 196.96654
551 Au 0 LAT Au 0 0.000 196.96654
552 Au 0 LAT Au 0 0.000 196.96654
553 Au 0 LAT Au 0 0.000 196.96654
554 Au 0 LAT Au 0 0.000 196.96654
555 Au 0 LAT Au 0 0.000 196.96654
556 Au 0 LAT Au 0 0.000 196.96654
557 Au 0 LAT Au 0 0.000 196.96654
558 Au 0 LAT Au 0 0.000 196.96654
559 Au 0 LAT Au 0 0.000 196.96654
560 Au 0 LAT Au 0 0.000 196.96654
561 Au 0 LAT Au 0 0.000 196.96654
562 Au 0 LAT Au 0 0.000 196.96654
563 Au 0 LAT Au 0 0.000 196.96654
564 Au 0 LAT Au 0 0.000 196.96654
565 Au 0 LAT Au 0 0.000 196.96654
566 Au 0 LAT Au 0 0.000 196.96654
567 Au 0 LAT Au 0 0.000 196.96654
568 Au 0 LAT Au 0 0.000 196.96654
569 Au 0 LAT Au 0 0.000 196.96654
570 Au 0 LAT Au 0 0.000 196.96654
571 Au 0 LAT Au 0 0.000 196.96654
572 Au 0 LAT Au 0 0.000 196.96654
573 Au 0 LAT Au 0 0.000 196.96654
574 Au 0 LAT Au 0 0.000 196.96654
575 Au 0 LAT Au 0 0.000 196.96654
576 Au 0 LAT Au 0 0.000 196.96654
577 Au 0 LAT Au 0 0.000 196.96654
578 Au 0 LAT Au 0 0.000 196.96654
579 Au 0 LAT Au 0 0.000 196.96654
580 Au 0 LAT Au 0 0.000 196.96654
581 Au 0 LAT Au 0 0.000 196.96654
582 Au 0 LAT Au 0 0.000 196.96654
583 Au 0 LAT Au 0 0.000 196.96654
584 Au 0 LAT Au 0 0.000 196.96654
585 Au 0 LAT Au 0 0.000 196.96654
586 Au 0 LAT Au 0 0.000 196.96654
587 Au 0 LAT Au 0 0.000 196.96654
588 Au 0 LAT Au 0 0.000 196.96654
589 Au 0 LAT Au 0 0.000 196.96654
590 Au 0 LAT Au 0 0.000 196.96654
591 Au 0 LAT Au 0 0.000 196.96654
592 Au 0 LAT Au 0 0.000 196.96654
593 Au 0 LAT Au 0 0.000 196.96654
594 Au 0 LAT Au 0 0.000 196.96654
595 Au 0 LAT Au 0 0.000 196.96654
596 Au 0 LAT Au 0 0.000 196.96654
597 Au 0 LAT Au 0 0.000 196.96654
598 Au 0 LAT Au 0 0.000 196.96654
599 Au 0 LAT Au 0 0.000 196.96654
600 Au 0 LAT Au 0 0.000 196.96654
601 Au 0 LAT Au 0 0.000 196.96654
602 Au 0 LAT Au 0 0.000 196.96654
603 Au 0 LAT Au 0 0.000 196.96654
604 Au 0 LAT Au 0 0.000 196.96654
605 Au 0 LAT Au 0 0.000 196.96654
606 Au 0 LAT Au 0 0.000 196.96654
607 Au 0 LAT Au 0 0.000 196.96654
608 Au 0 LAT Au 0 0.000 196.96654
609 Au 0 LAT Au 0 0.000 196.96654
610 Au 0 LAT Au 0 0.000 196.96654
611 Au 0 LAT Au 0 0.000 196.96654
612 Au 0 LAT Au 0 0.000 196.96654
613 Au 0 LAT Au 0 0.000 196.96654
614 Au 0 LAT Au 0 0.000 196.96654
615 Au 0 LAT Au 0 0.000 196.96654
616 Au 0 LAT Au 0 0.000 196.96654
617 Au 0 LAT Au 0 0.000 196.96654
618 Au 0 LAT Au 0 0.000 196.96654
619 Au 0 LAT Au 0 0.000 196.96654
620 Au 0 LAT Au 0 0.000 196.96654
621 Au 0 LAT Au 0 0.000 196.96654
622 Au 0 LAT Au 0 0.000 196.96654
623 Au 0 LAT Au 0 0.000 196.96654
624 Au 0 LAT Au 0 0.000 196.96654
625 Au 0 LAT Au 0 0.000 196.96654
626 Au 0 LAT Au 0 0.000 196.96654
627 Au 0 LAT Au 0 0.000 196.96654
628 Au 0 LAT Au 0 0.000 196.96654
629 Au 0 LAT Au 0 0.000 196.96654
630 Au 0 LAT Au 0 0.000 196.96654
631 Au 0 LAT Au 0 0.000 196.96654
632 Au 0 LAT Au 0 0.000 196.96654
633 Au 0 LAT Au 0 0.000 196.96654
634 Au 0 LAT Au 0 0.000 196.96654
635 Au 0 LAT Au 0 0.000 196.96654
636 Au 0 LAT Au 0 0.000 196.96654
637 Au 0 LAT Au 0 0.000 196.96654
638 Au 0 LAT Au 0 0.000 196.96654
639 Au 0 LAT Au 0 0.000 196.96654
640 Au 0 LAT Au 0 0.000 196.96654
641 Au 0 LAT Au 0 0.000 196.96654
642 Au 0 LAT Au 0 0.000 196.96654
643 Au 0 LAT Au 0 0.000 196.96654
644 Au 0 LAT Au 0 0.000 196.96654
645 Au 0 LAT Au 0 0.000 196.96654
646 Au 0 LAT Au 0 0.000 196.96654
647 Au 0 LAT Au 0 0.000 196.96654
648 Au 0 LAT Au 0 0.000 196.96654
649 Au 0 LAT Au 0 0.000 196.96654
650 Au 0 LAT Au 0 0.000 196.96654
651 Au 0 LAT Au 0 0.000 196.96654
652 Au 0 LAT Au 0 0.000 196.96654
653 Au 0 LAT Au 0 0.000 196.96654
654 Au 0 LAT Au 0 0.000 196.96654
655 Au 0 LAT Au 0 0.000 196.96654
656 Au 0 LAT Au 0 0.000 196.96654
657 Au 0 LAT Au 0 0.000 196.96654
658 Au 0 LAT Au 0 0.000 196.96654
659 Au 0 LAT Au 0 0.000 196.96654
660 Au 0 LAT Au 0 0.000 196.96654
661 Au 0 LAT Au 0 0.000 196.96654
662 Au 0 LAT Au 0 0.000 196.96654
663 Au 0 LAT Au 0 0.000 196.96654
664 Au 0 LAT Au 0 0.000 196.96654
665 Au 0 LAT Au 0 0.000 196.96654
666 Au 0 LAT Au 0 0.000 196.96654
667 Au 0 LAT Au 0 0.000 196.96654
668 Au 0 LAT Au 0 0.000 196.96654
669 Au 0 LAT Au 0 0.000 196.96654
670 Au 0 LAT Au 0 0.000 196.96654
671 Au 0 LAT Au 0 0.000 196.96654
672 Au 0 LAT Au 0 0.000 196.96654
673 Au 0 LAT Au 0 0.000 196.96654
674 Au 0 LAT Au 0 0.000 196.96654
675 Au 0 LAT Au 0 0.000 196.96654
676 Au 0 LAT Au 0 0.000 196.96654
677 Au 0 LAT Au 0 0.000 196.96654
678 Au 0 LAT Au 0 0.000 196.96654
679 Au 0 LAT Au 0 0.000 196.96654
680 Au 0 LAT Au 0 0.000 196.96654
681 Au 0 LAT Au 0 0.000 196.96654
682 Au 0 LAT Au 0 0.000 196.96654
683 Au 0 LAT Au 0 0.000 196.96654
684 Au 0 LAT Au 0 0.000 196.96654
685 Au 0 LAT Au 0 0.000 196.96654
686 Au 0 LAT Au 0 0.000 196.96654
687 Au 0 LAT Au 0 0.000 196.96654
688 Au 0 LAT Au 0 0.000 196.96654
689 Au 0 LAT Au 0 0.000 196.96654
690 Au 0 LAT Au 0 0.000 196.96654
691 Au 0 LAT Au 0 0.000 196.96654
692 Au 0 LAT Au 0 0.000 196.96654
693 Au 0 LAT Au 0 0.000 196.96654
694 Au 0 LAT Au 0 0.000 196.96654
695 Au 0 LAT Au 0 0.000 196.96654
696 Au 0 LAT Au 0 0.000 196.96654
697 Au 0 LAT Au 0 0.000 196.96654
698 Au 0 LAT Au 0 0.000 196.96654
699 Au 0 LAT Au 0 0.000 196.96654
700 Au 0 LAT Au 0 0.000 196.96654
701 Au 0 LAT Au 0 0.000 196.96654
702 Au 0 LAT Au 0 0.000 196.96654
703 Au 0 LAT Au 0 0.000 196.96654
704 Au 0 LAT Au 0 0.000 196.96654
705 Au 0 LAT Au 0 0.000 196.96654
706 Au 0 LAT Au 0 0.000 196.96654
707 Au 0 LAT Au 0 0.000 196.96654
708 Au 0 LAT Au 0 0.000 196.96654
709 Au 0 LAT Au 0 0.000 196.96654
710 Au 0 LAT Au 0 0.000 196.96654
711 Au 0 LAT Au 0 0.000 196.96654
712 Au 0 LAT Au 0 0.000 196.96654
713 Au 0 LAT Au 0 0.000 196.96654
714 Au 0 LAT Au 0 0.000 196.96654
715 Au 0 LAT Au 0 0.000 196.96654
716 Au 0 LAT Au 0 0.000 196.96654
717 Au 0 LAT Au 0 0.000 196.96654
718 Au 0 LAT Au 0 0.000 196.96654
719 Au 0 LAT Au 0 0.000 196.96654
720 Au 0 LAT Au 0 0.000 196.96654
721 Au 0 LAT Au 0 0.000 196.96654
722 Au 0 LAT Au 0 0.000 196.96654
723 Au 0 LAT Au 0 0.000 196.96654
724 Au 0 LAT Au 0 0.000 196.96654
725 Au 0 LAT Au 0 0.000 196.96654
726 Au 0 LAT Au 0 0.000 196.96654
727 Au 0 LAT Au 0 0.000 196.96654
728 Au 0 LAT Au 0 0.000 196.96654
729 Au 0 LAT Au 0 0.000 196.96654
730 Au 0 LAT Au 0 0.000 196.96654
731 Au 0 LAT Au 0 0.000 196.96654
732 Au 0 LAT Au 0 0.000 196.96654
733 Au 0 LAT Au 0 0.000 196.96654
734 Au 0 LAT Au 0 0.000 196.96654
735 Au 0 LAT Au 0 0.000 196.96654
736 Au 0 LAT Au 0 0.000 196.96654
737 Au 0 LAT Au 0 0.000 196.96654
738 Au 0 LAT Au 0 0.000 196.96654
739 Au 0 LAT Au 0 0.000 196.96654
740 Au 0 LAT Au 0 0.000 196.96654
741 Au 0 LAT Au 0 0.000 196.96654
742 Au 0 LAT Au 0 0.000 196.96654
743 Au 0 LAT Au 0 0.000 196.96654
744 Au 0 LAT Au 0 0.000 196.96654
745 Au 0 LAT Au 0 0.000 196.96654
746 Au 0 LAT Au 0 0.000 196.96654
747 Au 0 LAT Au 0 0.000 196.96654
748 Au 0 LAT Au 0 0.000 196.96654
749 Au 0 LAT Au 0 0.000 196.96654
750 Au 0 LAT Au 0 0.000 196.96654
751 Au 0 LAT Au 0 0.000 196.96654
752 Au 0 LAT Au 0 0.000 196.96654
753 Au 0 LAT Au 0 0.000 196.96654
754 Au 0 LAT Au 0 0.000 196.96654
755 Au 0 LAT Au 0 0.000 196.96654
756 Au 0 LAT Au 0 0.000 196.96654
757 Au 0 LAT Au 0 0.000 196.96654
758 Au 0 LAT Au 0 0.000 196.96654
759 Au 0 LAT Au 0 0.000 196.96654
760 Au 0 LAT Au 0 0.000 196.96654
761 Au 0 LAT Au 0 0.000 196.96654
762 Au 0 LAT Au 0 0.000 196.96654
763 Au 0 LAT Au 0 0.000 196.96654
764 Au 0 LAT Au 0 0.000 196.96654
765 Au 0 LAT Au 0 0.000 196.96654
766 Au 0 LAT Au 0 0.000 196.96654
767 Au 0 LAT Au 0 0.000 196.96654
768 Au 0 LAT Au 0 0.000 196.96654
769 Au 0 LAT Au 0 0.000 196.96654
770 Au 0 LAT Au 0 0.000 196.96654
771 Au 0 LAT Au 0 0.000 196.96654
772 Au 0 LAT Au 0 0.000 196.96654
773 Au 0 LAT Au 0 0.000 196.96654
774 Au 0 LAT Au 0 0.000 196.96654
775 Au 0 LAT Au 0 0.000 196.96654
776 Au 0 LAT Au 0 0.000 196.96654
777 Au 0 LAT Au 0 0.000 196.96654
778 Au 0 LAT Au 0 0.000 196.96654
779 Au 0 LAT Au 0 0.000 196.96654
780 Au 0 LAT Au 0 0.000 196.96654
781 Au 0 LAT Au 0 0.000 196.96654
782 Au 0 LAT Au 0 0.000 196.96654
783 Au 0 LAT Au 0 0.000 196.96654
784 Au 0 LAT Au 0 0.000 196.96654
785 Au 0 LAT Au 0 0.000 196.96654
786 Au 0 LAT Au 0 0.000 196.96654
787 Au 0 LAT Au 0 0.000 196.96654
788 Au 0 LAT Au 0 0.000 196.96654
789 Au 0 LAT Au 0 0.000 196.96654
790 Au 0 LAT Au 0 0.000 196.96654
791 Au 0 LAT Au 0 0.000 196.96654
792 Au 0 LAT Au 0 0.000 196.96654
793 Au 0 LAT Au 0 0.000 196.96654
794 Au 0 LAT Au 0 0.000 196.96654
795 Au 0 LAT Au 0 0.000 196.96654
796 Au 0 LAT Au 0 0.000 196.96654
797 Au 0 LAT Au 0 0.000 196.96654
798 Au 0 LAT Au 0 0.000 196.96654
799 Au 0 LAT Au 0 0.000 196.96654
800 Au 0 LAT Au 0 0.000 196.96654
801 Au 0 LAT Au 0 0.000 196.96654
802 Au 0 LAT Au 0 0.000 196.96654
803 Au 0 LAT Au 0 0.000 196.96654
804 Au 0 LAT Au 0 0.000 196.96654
805 Au 0 LAT Au 0 0.000 196.96654
806 Au 0 LAT Au 0 0.000 196.96654
807 Au 0 LAT Au 0 0.000 196.96654
808 Au 0 LAT Au 0 0.000 196.96654
809 Au 0 LAT Au 0 0.000 196.96654
810 Au 0 LAT Au 0 0.000 196.96654
811 Au 0 LAT Au 0 0.000 196.96654
812 Au 0 LAT Au 0 0.000 196.96654
813 Au 0 LAT Au 0 0.000 196.96654
814 Au 0 LAT Au 0 0.000 196.96654
815 Au 0 LAT Au 0 0.000 196.96654
816 Au 0 LAT Au 0 0.000 196.96654
817 Au 0 LAT Au 0 0.000 196.96654
818 Au 0 LAT Au 0 0.000 196.96654
819 Au 0 LAT Au 0 0.000 196.96654
820 Au 0 LAT Au 0 0.000 196.96654
821 Au 0 LAT Au 0 0.000 196.96654
822 Au 0 LAT Au 0 0.000 196.96654
823 Au 0 LAT Au 0 0.000 196.96654
824 Au 0 LAT Au 0 0.000 196.96654
825 Au 0 LAT Au 0 0.000 196.96654
826 Au 0 LAT Au 0 0.000 196.96654
827 Au 0 LAT Au 0 0.000 196.96654
828 Au 0 LAT Au 0 0.000 196.96654
829 Au 0 LAT Au 0 0.000 196.96654
830 Au 0 LAT Au 0 0.000 196.96654
831 Au 0 LAT Au 0 0.000 196.96654
832 Au 0 LAT Au 0 0.000 196.96654
833 Au 0 LAT Au 0 0.000 196.96654
834 Au 0 LAT Au 0 0.000 196.96654
835 Au 0 LAT Au 0 0.000 196.96654
836 Au 0 LAT Au 0 0.000 196.96654
837 Au 0 LAT Au 0 0.000 196.96654
838 Au 0 LAT Au 0 0.000 196.96654
839 Au 0 LAT Au 0 0.000 196.96654
840 Au 0 LAT Au 0 0.000 196.96654
841 Au 0 LAT Au 0 0.000 196.96654
842 Au 0 LAT Au 0 0.000 196.96654
843 Au 0 LAT Au 0 0.000 196.96654
844 Au 0 LAT Au 0 0.000 196.96654
845 Au 0 LAT Au 0 0.000 196.96654
846 Au 0 LAT Au 0 0.000 196.96654
847 Au 0 LAT Au 0 0.000 196.96654
848 Au 0 LAT Au 0 0.000 196.96654
849 Au 0 LAT Au 0 0.000 196.96654
850 Au 0 LAT Au 0 0.000 196.96654
851 Au 0 LAT Au 0 0.000 196.96654
852 Au 0 LAT Au 0 0.000 196.96654
853 Au 0 LAT Au 0 0.000 196.96654
854 Au 0 LAT Au 0 0.000 196.96654
855 Au 0 LAT Au 0 0.000 196.96654
856 Au 0 LAT Au 0 0.000 196.96654
857 Au 0 LAT Au 0 0.000 196.96654
858 Au 0 LAT Au 0 0.000 196.96654
859 Au 0 LAT Au 0 0.000 196.96654
860 Au 0 LAT Au 0 0.000 196.96654
861 Au 0 LAT Au 0 0.000 196.96654
862 Au 0 LAT Au 0 0.000 196.96654
863 Au 0 LAT Au 0 0.000 196.96654
864 Au 0 LAT Au 0 0.000 196.96654
865 Au 0 LAT Au 0 0.000 196.96654
866 Au 0 LAT Au 0 0.000 196.96654
867 Au 0 LAT Au 0 0.000 196.96654
868 Au 0 LAT Au 0 0.000 196.96654
869 Au 0 LAT Au 0 0.000 196.96654
870 Au 0 LAT Au 0 0.000 196.96654
871 Au 0 LAT Au 0 0.000 196.96654
872 Au 0 LAT Au 0 0.000 196.96654
873 Au 0 LAT Au 0 0.000 196.96654
874 Au 0 LAT Au 0 0.000 196.96654
875 Au 0 LAT Au 0 0.000 196.96654
876 Au 0 LAT Au 0 0.000 196.96654
877 Au 0 LAT Au 0 0.000 196.96654
878 Au 0 LAT Au 0 0.000 196.96654
879 Au 0 LAT Au 0 0.000 196.96654
880 Au 0 LAT Au 0 0.000 196.96654
881 Au 0 LAT Au 0 0.000 196.96654
882 Au 0 LAT Au 0 0.000 196.96654
883 Au 0 LAT Au 0 0.000 196.96654
884 Au 0 LAT Au 0 0.000 196.96654
885 Au 0 LAT Au 0 0.000 196.96654
886 Au 0 LAT Au 0 0.000 196.96654
887 Au 0 LAT Au 0 0.000 196.96654
888 Au 0 LAT Au 0 0.000 196.96654
889 Au 0 LAT Au 0 0.000 196.96654
890 Au 0 LAT Au 0 0.000 196.96654
891 Au 0 LAT Au 0 0.000 196.96654
892 Au 0 LAT Au 0 0.000 196.96654
893 Au 0 LAT Au 0 0.000 196.96654
894 Au 0 LAT Au 0 0.000 196.96654
895 Au 0 LAT Au 0 0.000 196.96654
896 Au 0 LAT Au 0 0.000 196.96654
897 Au 0 LAT Au 0 0.000 196.96654
898 Au 0 LAT Au 0 0.000 196.96654
899 Au 0 LAT Au 0 0.000 196.96654
900 Au 0 LAT Au 0 0.000 196.96654
901 Au 0 LAT Au 0 0.000 196.96654
902 Au 0 LAT Au 0 0.000 196.96654
903 Au 0 LAT Au 0 0.000 196.96654
904 Au 0 LAT Au 0 0.000 196.96654
905 Au 0 LAT Au 0 0.000 196.96654
906 Au 0 LAT Au 0 0.000 196.96654
907 Au 0 LAT Au 0 0.000 196.96654
908 Au 0 LAT Au 0 0.000 196.96654
909 Au 0 LAT Au 0 0.000 196.96654
910 Au 0 LAT Au 0 0.000 196.96654
911 Au 0 LAT Au 0 0.000 196.96654
912 Au 0 LAT Au 0 0.000 196.96654
913 Au 0 LAT Au 0 0.000 196.96654
914 Au 0 LAT Au 0 0.000 196.96654
915 Au 0 LAT Au 0 0.000 196.96654
916 Au 0 LAT Au 0 0.000 196.96654
917 Au 0 LAT Au 0 0.000 196.96654
918 Au 0 LAT Au 0 0.000 196.96654
919 Au 0 LAT Au 0 0.000 196.96654
920 Au 0 LAT Au 0 0.000 196.96654
921 Au 0 LAT Au 0 0.000 196.96654
922 Au 0 LAT Au 0 0.000 196.96654
923 Au 0 LAT Au 0 0.000 196.96654
924 Au 0 LAT Au 0 0.000 196.96654
925 Au 0 LAT Au 0 0.000 196.96654
926 Au 0 LAT Au 0 0.000 196.96654
927 Au 0 LAT Au 0 0.000 196.96654
928 Au 0 LAT Au 0 0.000 196.96654
929 Au 0 LAT Au 0 0.000 196.96654
930 Au 0 LAT Au 0 0.000 196.96654
931 Au 0 LAT Au 0 0.000 196.96654
932 Au 0 LAT Au 0 0.000 196.96654
933 Au 0 LAT Au 0 0.000 196.96654
934 Au 0 LAT Au 0 0.000 196.96654
935 Au 0 LAT Au 0 0.000 196.96654
936 Au 0 LAT Au 0 0.000 196.96654
937 Au 0 LAT Au 0 0.000 196.96654
938 Au 0 LAT Au 0 0.000 196.96654
939 Au 0 LAT Au 0 0.000 196.96654
940 Au 0 LAT Au 0 0.000 196.96654
941 Au 0 LAT Au 0 0.000 196.96654
942 Au 0 LAT Au 0 0.000 196.96654
943 Au 0 LAT Au 0 0.000 196.96654
944 Au 0 LAT Au 0 0.000 196.96654
945 Au 0 LAT Au 0 0.000 196.96654
946 Au 0 LAT Au 0 0.000 196.96654
947 Au 0 LAT Au 0 0.000 196.96654
948 Au 0 LAT Au 0 0.000 196.96654
949 Au 0 LAT Au 0 0.000 196.96654
950 Au 0 LAT Au 0 0.000 196.96654
951 Au 0 LAT Au 0 0.000 196.96654
952 Au 0 LAT Au 0 0.000 196.96654
953 Au 0 LAT Au 0 0.000 196.96654
954 Au 0 LAT Au 0 0.000 196.96654
955 Au 0 LAT Au 0 0.000 196.96654
956 Au 0 LAT Au 0 0.000 196.96654
957 Au 0 LAT Au 0 0.000 196.96654
958 Au 0 LAT Au 0 0.000 196.96654
959 Au 0 LAT Au 0 0.000 196.96654
960 Au 0 LAT Au 0 0.000 196.96654
961 Au 0 LAT Au 0 0.000 196.96654
962 Au 0 LAT Au 0 0.000 196.96654
963 Au 0 LAT Au 0 0.000 196.96654
964 Au 0 LAT Au 0 0.000 196.96654
965 Au 0 LAT Au 0 0.000 196.96654
966 Au 0 LAT Au 0 0.000 196.96654
967 Au 0 LAT Au 0 0.000 196.96654
968 Au 0 LAT Au 0 0.000 196.96654
969 Au 0 LAT Au 0 0.000 196.96654
970 Au 0 LAT Au 0 0.000 196.96654
971 Au 0 LAT Au 0 0.000 196.96654
972 Au 0 LAT Au 0 0.000 196.96654
973 Au 0 LAT Au 0 0.000 196.96654
974 Au 0 LAT Au 0 0.000 196.96654
975 Au 0 LAT Au 0 0.000 196.96654
976 Au 0 LAT Au 0 0.000 196.96654
977 Au 0 LAT Au 0 0.000 196.96654
978 Au 0 LAT Au 0 0.000 196.96654
979 Au 0 LAT Au 0 0.000 196.96654
980 Au 0 LAT Au 0 0.000 196.96654
981 Au 0 LAT Au 0 0.000 196.96654
982 Au 0 LAT Au 0 0.000 196.96654
983 Au 0 LAT Au 0 0.000 196.96654
984 Au 0 LAT Au 0 0.000 196.96654
985 Au 0 LAT Au 0 0.000 196.96654
986 Au 0 LAT Au 0 0.000 196.96654
987 Au 0 LAT Au 0 0.000 196.96654
988 Au 0 LAT Au 0 0.000 196.96654
989 Au 0 LAT Au 0 0.000 196.96654
990 Au 0 LAT Au 0 0.000 196.96654
991 Au 0 LAT Au 0 0.000 196.96654
992 Au 0 LAT Au 0 0.000 196.96654
993 Au 0 LAT Au 0 0.000 196.96654
994 Au 0 LAT Au 0 0.000 196.96654
995 Au 0 LAT Au 0 0.000 196.96654
996 Au 0 LAT Au 0 0.000 196.96654
997 Au 0 LAT Au 0 0.000 196.96654
998 Au 0 LAT Au 0 0.000 196.96654
999 Au 0 LAT Au 0 0.000 196.96654
1000 Au 0 LAT Au 0 0.000 196.96654
1001 Au 0 LAT Au 0 0.000 196.96654
1002 Au 0 LAT Au 0 0.000 196.96654
1003 Au 0 LAT Au 0 0.000 196.96654
1004 Au 0 LAT Au 0 0.000 196.96654
1005 Au 0 LAT Au 0 0.000 196.96654
1006 Au 0 LAT Au 0 0.000 196.96654
1007 Au 0 LAT Au 0 0.000 196.96654
1008 Au 0 LAT Au 0 0.000 196.96654
1009 Au 0 LAT Au 0 0.000 196.96654
1010 Au 0 LAT Au 0 0.000 196.96654
1011 Au 0 LAT Au 0 0.000 196.96654
1012 Au 0 LAT Au 0 0.000 196.96654
1013 Au 0 LAT Au 0 0.000 196.96654
1014 Au 0 LAT Au 0 0.000 196.96654
1015 Au 0 LAT Au 0 0.000 196.96654
1016 Au 0 LAT Au 0 0.000 196.96654
1017 Au 0 LAT Au 0 0.000 196.96654
1018 Au 0 LAT Au 0 0.000 196.96654
1019 Au 0 LAT Au 0 0.000 196.96654
1020 Au 0 LAT Au 0 0.000 196.96654
1021 Au 0 LAT Au 0 0.000 196.96654
1022 Au 0 LAT Au 0 0.000 196.96654
1023 Au 0 LAT Au 0 0.000 196.96654
1024 Au 0 LAT Au 0 0.000 196.96654
1025 Au 0 LAT Au 0 0.000 196.96654
1026 Au 0 LAT Au 0 0.000 196.96654
1027 Au 0 LAT Au 0 0.000 196.96654
1028 Au 0 LAT Au 0 0.000 196.96654
1029 Au 0 LAT Au 0 0.000 196.96654
1030 Au 0 LAT Au 0 0.000 196.96654
1031 Au 0 LAT Au 0 0.000 196.96654
1032 Au 0 LAT Au 0 0.000 196.96654
1033 Au 0 LAT Au 0 0.000 196.96654
1034 Au 0 LAT Au 0 0.000 196.96654
1035 Au 0 LAT Au 0 0.000 196.96654
1036 Au 0 LAT Au 0 0.000 196.96654
1037 Au 0 LAT Au 0 0.000 196.96654
1038 Au 0 LAT Au 0 0.000 196.96654
1039 Au 0 LAT Au 0 0.000 196.96654
1040 Au 0 LAT Au 0 0.000 196.96654
1041 Au 0 LAT Au 0 0.000 196.96654
1042 Au 0 LAT Au 0 0.000 196.96654
1043 Au 0 LAT Au 0 0.000 196.96654
1044 Au 0 LAT Au 0 0.000 196.96654
1045 Au 0 LAT Au 0 0.000 196.96654
1046 Au 0 LAT Au 0 0.000 196.96654
1047 Au 0 LAT Au 0 0.000 196.96654
1048 Au 0 LAT Au 0 0.000 196.96654
1049 Au 0 LAT Au 0 0.000 196.96654
1050 Au 0 LAT Au 0 0.000 196.96654
1051 Au 0 LAT Au 0 0.000 196.96654
1052 Au 0 LAT Au 0 0.000 196.96654
1053 Au 0 LAT Au 0 0.000 196.96654
1054 Au 0 LAT Au 0 0.000 196.96654
1055 Au 0 LAT Au 0 0.000 196.96654
1056 Au 0 LAT Au 0 0.000 196.96654
1057 Au 0 LAT Au 0 0.000 196.96654
1058 Au 0 LAT Au 0 0.000 196.96654
1059 Au 0 LAT Au 0 0.000 196.96654
1060 Au 0 LAT Au 0 0.000 196.96654
1061 Au 0 LAT Au 0 0.000 196.96654
1062 Au 0 LAT Au 0 0.000 196.96654
1063 Au 0 LAT Au 0 0.000 196.96654
1064 Au 0 LAT Au 0 0.000 196.96654
1065 Au 0 LAT Au 0 0.000 196.96654
1066 Au 0 LAT Au 0 0.000 196.96654
1067 Au 0 LAT Au 0 0.000 196.96654
1068 Au 0 LAT Au 0 0.000 196.96654
1069 Au 0 LAT Au 0 0.000 196.96654
1070 Au 0 LAT Au 0 0.000 196.96654
1071 Au 0 LAT Au 0 0.000 196.96654
1072 Au 0 LAT Au 0 0.000 196.96654
1073 Au 0 LAT Au 0 0.000 196.96654
1074 Au 0 LAT Au 0 0.000 196.96654
1075 Au 0 LAT Au 0 0.000 196.96654
1076 Au 0 LAT Au 0 0.000 196.96654
1077 Au 0 LAT Au 0 0.000 196.96654
1078 Au 0 LAT Au 0 0.000 196.96654
1079 Au 0 LAT Au 0 0.000 196.96654
1080 Au 0 LAT Au 0 0.000 196.96654
1081 Au 0 LAT Au 0 0.000 196.96654
1082 Au 0 LAT Au 0 0.000 196.96654
1083 Au 0 LAT Au 0 0.000 196.96654
1084 Au 0 LAT Au 0 0.000 196.96654
1085 Au 0 LAT Au 0 0.000 196.96654
1086 Au 0 LAT Au 0 0.000 196.96654
1087 Au 0 LAT Au 0 0.000 196.96654
1088 Au 0 LAT Au 0 0.000 196.96654
1089 Au 0 LAT Au 0 0.000 196.96654
1090 Au 0 LAT Au 0 0.000 196.96654
1091 Au 0 LAT Au 0 0.000 196.96654
1092 Au 0 LAT Au 0 0.000 196.96654
1093 Au 0 LAT Au 0 0.000 196.96654
1094 Au 0 LAT Au 0 0.000 196.96654
1095 Au 0 LAT Au 0 0.000 196.96654
1096 Au 0 LAT Au 0 0.000 196.96654
1097 Au 0 LAT Au 0 0.000 196.96654
1098 Au 0 LAT Au 0 0.000 196.96654
1099 Au 0 LAT Au 0 0.000 196.96654
1100 Au 0 LAT Au 0 0.000 196.96654
1101 Au 0 LAT Au 0 0.000 196.96654
1102 Au 0 LAT Au 0 0.000 196.96654
1103 Au 0 LAT Au 0 0.000 196.96654
1104 Au 0 LAT Au 0 0.000 196.96654
1105 Au 0 LAT Au 0 0.000 196.96654
1106 Au 0 LAT Au 0 0.000 196.96654
1107 Au 0 LAT Au 0 0.000 196.96654
1108 Au 0 LAT Au 0 0.000 196.96654
1109 Au 0 LAT Au 0 0.000 196.96654
1110 Au 0 LAT Au 0 0.000 196.96654
1111 Au 0 LAT Au 0 0.000 196.96654
1112 Au 0 LAT Au 0 0.000 196.96654
1113 Au 0 LAT Au 0 0.000 196.96654
1114 Au 0 LAT Au 0 0.000 196.96654
1115 Au 0 LAT Au 0 0.000 196.96654
1116 Au 0 LAT Au 0 0.000 196.96654
1117 Au 0 LAT Au 0 0.000 196.96654
1118 Au 0 LAT Au 0 0.000 196.96654
1119 Au 0 LAT Au 0 0.000 196.96654
1120 Au 0 LAT Au 0 0.000 196.96654
1121 Au 0 LAT Au 0 0.000 196.96654
1122 Au 0 LAT Au 0 0.000 196.96654
1123 Au 0 LAT Au 0 0.000 196.96654
1124 Au 0 LAT Au 0 0.000 196.96654
1125 Au 0 LAT Au 0 0.000 196.96654
1126 Au 0 LAT Au 0 0.000 196.96654
1127 Au 0 LAT Au 0 0.000 196.96654
1128 Au 0 LAT Au 0 0.000 196.96654
1129 Au 0 LAT Au 0 0.000 196.96654
1130 Au 0 LAT Au 0 0.000 196.96654
1131 Au 0 LAT Au 0 0.000 196.96654
1132 Au 0 LAT Au 0 0.000 196.96654
1133 Au 0 LAT Au 0 0.000 196.96654
1134 Au 0 LAT Au 0 0.000 196.96654
1135 Au 0 LAT Au 0 0.000 196.96654
1136 Au 0 LAT Au 0 0.000 196.96654
1137 Au 0 LAT Au 0 0.000 196.96654
1138 Au 0 LAT Au 0 0.000 196.96654
1139 Au 0 LAT Au 0 0.000 196.96654
1140 Au 0 LAT Au 0 0.000 196.96654
1141 Au 0 LAT Au 0 0.000 196.96654
1142 Au 0 LAT Au 0 0.000 196.96654
1143 Au 0 LAT Au 0 0.000 196.96654
1144 Au 0 LAT Au 0 0.000 196.96654
1145 Au 0 LAT Au 0 0.000 196.96654
1146 Au 0 LAT Au 0 0.000 196.96654
1147 Au 0 LAT Au 0 0.000 196.96654
1148 Au 0 LAT Au 0 0.000 196.96654
1149 Au 0 LAT Au 0 0.000 196.96654
1150 Au 0 LAT Au 0 0.000 196.96654
1151 Au 0 LAT Au 0 0.000 196.96654
1152 Au 0 LAT Au 0 0.000 196.96654
1153 Au 0 LAT Au 0 0.000 196.96654
1154 Au 0 LAT Au 0 0.000 196.96654
1155 Au 0 LAT Au 0 0.000 196.96654
1156 Au 0 LAT Au 0 0.000 196.96654
1157 Au 0 LAT Au 0 0.000 196.96654
1158 Au 0 LAT Au 0 0.000 196.96654
1159 Au 0 LAT Au 0 0.000 196.96654
1160 Au 0 LAT Au 0 0.000 196.96654
1161 Au 0 LAT Au 0 0.000 196.96654
1162 Au 0 LAT Au 0 0.000 196.96654
1163 Au 0 LAT Au 0 0.000 196.96654
1164 Au 0 LAT Au 0 0.000 196.96654
1165 Au 0 LAT Au 0 0.000 196.96654
1166 Au 0 LAT Au 0 0.000 196.96654
1167 Au 0 LAT Au 0 0.000 196.96654
1168 Au 0 LAT Au 0 0.000 196.96654
1169 Au 0 LAT Au 0 0.000 196.96654
1170 Au 0 LAT Au 0 0.000 196.96654
1171 Au 0 LAT Au 0 0.000 196.96654
1172 Au 0 LAT Au 0 0.000 196.96654
1173 Au 0 LAT Au 0 0.000 196.96654
1174 Au 0 LAT Au 0 0.000 196.96654
1175 Au 0 LAT Au 0 0.000 196.96654
1176 Au 0 LAT Au 0 0.000 196.96654
1177 Au 0 LAT Au 0 0.000 196.96654
1178 Au 0 LAT Au 0 0.000 196.96654
1179 Au 0 LAT Au 0 0.000 196.96654
1180 Au 0 LAT Au 0 0.000 196.96654
1181 Au 0 LAT Au 0 0.000 196.96654
1182 Au 0 LAT Au 0 0.000 196.96654
1183 Au 0 LAT Au 0 0.000 196.96654
1184 Au 0 LAT Au 0 0.000 196.96654
1185 Au 0 LAT Au 0 0.000 196.96654
1186 Au 0 LAT Au 0 0.000 196.96654
1187 Au 0 LAT Au 0 0.000 196.96654
1188 Au 0 LAT Au 0 0.000 196.96654
1189 Au 0 LAT Au 0 0.000 196.96654
1190 Au 0 LAT Au 0 0.000 196.96654
1191 Au 0 LAT Au 0 0.000 196.96654
1192 Au 0 LAT Au 0 0.000 196.96654
1193 Au 0 LAT Au 0 0.000 196.96654
1194 Au 0 LAT Au 0 0.000 196.96654
1195 Au 0 LAT Au 0 0.000 196.96654
1196 Au 0 LAT Au 0 0.000 196.96654
1197 Au 0 LAT Au 0 0.000 196.96654
1198 Au 0 LAT Au 0 0.000 196.96654
1199 Au 0 LAT Au 0 0.000 196.96654
1200 Au 0 LAT Au 0 0.000 196.96654
1201 Au 0 LAT Au 0 0.000 196.96654
1202 Au 0 LAT Au 0 0.000 196.96654
1203 Au 0 LAT Au 0 0.000 196.96654
1204 Au 0 LAT Au 0 0.000 196.96654
1205 Au 0 LAT Au 0 0.000 196.96654
1206 Au 0 LAT Au 0 0.000 196.96654

[ bonds ]
1 2 1
2 3 1
3 4 1
4 5 1
5 6 1
7 8 1
8 9 1
9 10 1
10 11 1
11 12 1
13 14 1
14 15 1
15 16 1
16 17 1
17 18 1
19 20 1
20 21 1
21 22 1
22 23 1
23 24 1
25 26 1
26 27 1
27 28 1
28 29 1
29 30 1
31 32 1
32 33 1
33 34 1
34 35 1
35 36 1
37 38 1
38 39 1
39 40 1
40 41 1
41 42 1
43 44 1
44 45 1
45 46 1
46 47 1
47 48 1
49 50 1
50 51 1
51 52 1
52 53 1
53 54 1
55 56 1
56 57 1
57 58 1
58 59 1
59 60 1
61 62 1
62 63 1
63 64 1
64 65 1
65 66 1
67 68 1
68 69 1
69 70 1
70 71 1
71 72 1
73 74 1
74 75 1
75 76 1
76 77 1
77 78 1
79 80 1
80 81 1
81 82 1
82 83 1
83 84 1
85 86 1
86 87 1
87 88 1
88 89 1
89 90 1
91 92 1
92 93 1
93 94 1
94 95 1
95 96 1
97 98 1
98 99 1
99 100 1
100 101 1
101 102 1
103 104 1
104 105 1
105 106 1
106 107 1
107 108 1
109 110 1
110 111 1
111 112 1
112 113 1
113 114 1
115 116 1
116 117 1
117 118 1
118 119 1
119 120 1
121 122 1
122 123 1
123 124 1
124 125 1
125 126 1
127 128 1
128 129 1
129 130 1
130 131 1
131 132 1
133 134 1
134 135 1
135 136 1
136 137 1
137 138 1
139 140 1
140 141 1
141 142 1
142 143 1
143 144 1
145 146 1
146 147 1
147 148 1
148 149 1
149 150 1
151 152 1
152 153 1
153 154 1
154 155 1
155 156 1
157 158 1
158 159 1
159 160 1
160 161 1
161 162 1
163 164 1
164 165 1
165 166 1
166 167 1
167 168 1
169 170 1
170 171 1
171 172 1
172 173 1
173 174 1
175 176 1
176 177 1
177 178 1
178 179 1
179 180 1
181 182 1
182 183 1
183 184 1
184 185 1
185 186 1
187 188 1
188 189 1
189 190 1
190 191 1
191 192 1
193 194 1
194 195 1
195 196 1
196 197 1
197 198 1
199 200 1
200 201 1
201 202 1
202 203 1
203 204 1
205 206 1
206 207 1
207 208 1
208 209 1
209 210 1
211 212 1
212 213 1
213 214 1
214 215 1
215 216 1
217 218 1
218 219 1
219 220 1
220 221 1
221 222 1
223 224 1
224 225 1
225 226 1
226 227 1
227 228 1
229 230 1
230 231 1
231 232 1
232 233 1
233 234 1
235 236 1
236 237 1
237 238 1
238 239 1
239 240 1
241 242 1
242 243 1
243 244 1
244 245 1
245 246 1
247 248 1
248 249 1
249 250 1
250 251 1
251 252 1
253 254 1
254 255 1
255 256 1
256 257 1
257 258 1
259 260 1
260 261 1
261 262 1
262 263 1
263 264 1
265 266 1
266 267 1
267 268 1
268 269 1
269 270 1
271 272 1
272 273 1
273 274 1
274 275 1
275 276 1
277 278 1
278 279 1
279 280 1
280 281 1
281 282 1
283 284 1
284 285 1
285 286 1
286 287 1
287 288 1
289 290 1
290 291 1
291 292 1
292 293 1
293 294 1
295 296 1
296 297 1
297 298 1
298 299 1
299 300 1
301 302 1
302 303 1
303 304 1
304 305 1
305 306 1
307 308 1
308 309 1
309 310 1
310 311 1
311 312 1
313 314 1
314 315 1
315 316 1
316 317 1
317 318 1
319 320 1
320 321 1
321 322 1
322 323 1
323 324 1
325 326 1
326 327 1
327 328 1
328 329 1
329 330 1
331 332 1
332 333 1
333 334 1
334 335 1
335 336 1
337 338 1
338 339 1
339 340 1
340 341 1
341 342 1
343 344 1
344 345 1
345 346 1
346 347 1
347 348 1
349 350 1
350 351 1
351 352 1
352 353 1
353 354 1
355 356 1
356 357 1
357 358 1
358 359 1
359 360 1
361 362 1
362 363 1
363 364 1
364 365 1
365 366 1
367 368 1
368 369 1
369 370 1
370 371 1
371 372 1
373 374 1
374 375 1
375 376 1
376 377 1
377 378 1
;sub-sub
379 381 1
379 385 1
379 388 1
379 389 1
380 381 1
380 383 1
380 389 1
380 392 1
380 393 1
381 388 1
381 389 1
381 392 1
381 448 1
381 449 1
381 458 1
382 383 1
382 393 1
382 396 1
382 397 1
383 392 1
383 393 1
383 396 1
383 449 1
383 451 1
383 462 1
384 385 1
384 387 1
384 401 1
384 402 1
385 386 1
385 387 1
385 388 1
386 387 1
386 388 1
386 389 1
386 391 1
386 402 1
386 405 1
386 406 1
387 388 1
387 401 1
387 402 1
387 405 1
387 453 1
387 454 1
387 455 1
387 471 1
388 389 1
388 391 1
388 448 1
388 454 1
388 455 1
388 458 1
389 390 1
389 391 1
389 392 1
390 391 1
390 392 1
390 393 1
390 395 1
390 406 1
390 409 1
390 410 1
391 392 1
391 405 1
391 406 1
391 409 1
391 455 1
391 458 1
391 459 1
391 475 1
392 393 1
392 395 1
392 449 1
392 458 1
392 459 1
392 462 1
393 394 1
393 395 1
393 396 1
394 395 1
394 396 1
394 397 1
394 399 1
394 410 1
394 413 1
394 414 1
395 396 1
395 409 1
395 410 1
395 413 1
395 459 1
395 462 1
395 463 1
395 479 1
396 397 1
396 399 1
396 451 1
396 462 1
396 463 1
396 466 1
397 398 1
397 399 1
398 399 1
398 414 1
398 417 1
399 413 1
399 414 1
399 417 1
399 463 1
399 466 1
399 467 1
399 483 1
400 401 1
400 402 1
400 404 1
400 419 1
400 420 1
401 402 1
401 404 1
401 453 1
401 469 1
401 471 1
402 403 1
402 404 1
402 405 1
403 404 1
403 405 1
403 406 1
403 408 1
403 420 1
403 423 1
403 424 1
404 405 1
404 419 1
404 420 1
404 423 1
404 469 1
404 471 1
404 472 1
404 489 1
405 406 1
405 408 1
405 455 1
405 471 1
405 472 1
405 475 1
406 407 1
406 408 1
406 409 1
407 408 1
407 409 1
407 410 1
407 412 1
407 424 1
407 427 1
407 428 1
408 409 1
408 423 1
408 424 1
408 427 1
408 472 1
408 475 1
408 476 1
408 493 1
409 410 1
409 412 1
409 459 1
409 475 1
409 476 1
409 479 1
410 411 1
410 412 1
410 413 1
411 412 1
411 413 1
411 414 1
411 416 1
411 428 1
411 431 1
411 432 1
412 413 1
412 427 1
412 428 1
412 431 1
412 476 1
412 479 1
412 480 1
412 497 1
413 414 1
413 416 1
413 463 1
413 479 1
413 480 1
413 483 1
414 415 1
414 416 1
414 417 1
415 416 1
415 417 1
415 432 1
415 435 1
416 417 1
416 431 1
416 432 1
416 435 1
416 480 1
416 483 1
416 484 1
416 501 1
417 467 1
417 483 1
417 484 1
418 419 1
418 420 1
418 422 1
418 436 1
419 420 1
419 422 1
419 469 1
419 487 1
419 489 1
420 421 1
420 422 1
420 423 1
421 422 1
421 423 1
421 424 1
421 426 1
421 436 1
421 438 1
421 439 1
422 423 1
422 436 1
422 438 1
422 487 1
422 489 1
422 490 1
422 505 1
423 424 1
423 426 1
423 472 1
423 489 1
423 490 1
423 493 1
424 425 1
424 426 1
424 427 1
425 426 1
425 427 1
425 428 1
425 430 1
425 439 1
425 442 1
425 443 1
426 427 1
426 438 1
426 439 1
426 442 1
426 490 1
426 493 1
426 494 1
426 508 1
427 428 1
427 430 1
427 476 1
427 493 1
427 494 1
427 497 1
428 429 1
428 430 1
428 431 1
429 430 1
429 431 1
429 432 1
429 434 1
429 443 1
429 446 1
429 447 1
430 431 1
430 442 1
430 443 1
430 446 1
430 494 1
430 497 1
430 498 1
430 512 1
431 432 1
431 434 1
431 480 1
431 497 1
431 498 1
431 501 1
432 433 1
432 434 1
432 435 1
433 434 1
433 435 1
433 447 1
434 435 1
434 446 1
434 447 1
434 498 1
434 501 1
434 502 1
434 516 1
435 484 1
435 501 1
435 502 1
436 437 1
436 438 1
437 438 1
437 439 1
437 441 1
438 439 1
438 441 1
438 490 1
438 505 1
438 506 1
438 508 1
439 440 1
439 441 1
439 442 1
440 441 1
440 442 1
440 443 1
440 445 1
441 442 1
441 506 1
441 508 1
441 509 1
442 443 1
442 445 1
442 494 1
442 508 1
442 509 1
442 512 1
443 444 1
443 445 1
443 446 1
444 445 1
444 446 1
444 447 1
445 446 1
445 509 1
445 512 1
445 513 1
446 447 1
446 498 1
446 512 1
446 513 1
446 516 1
448 450 1
448 454 1
448 457 1
448 458 1
449 450 1
449 452 1
449 458 1
449 461 1
449 462 1
450 457 1
450 458 1
450 461 1
450 517 1
450 518 1
450 527 1
451 452 1
451 462 1
451 465 1
451 466 1
452 461 1
452 462 1
452 465 1
452 518 1
452 520 1
452 531 1
453 454 1
453 456 1
453 470 1
453 471 1
454 455 1
454 456 1
454 457 1
455 456 1
455 457 1
455 458 1
455 460 1
455 471 1
455 474 1
455 475 1
456 457 1
456 470 1
456 471 1
456 474 1
456 522 1
456 523 1
456 524 1
456 540 1
457 458 1
457 460 1
457 517 1
457 523 1
457 524 1
457 527 1
458 459 1
458 460 1
458 461 1
459 460 1
459 461 1
459 462 1
459 464 1
459 475 1
459 478 1
459 479 1
460 461 1
460 474 1
460 475 1
460 478 1
460 524 1
460 527 1
460 528 1
460 544 1
461 462 1
461 464 1
461 518 1
461 527 1
461 528 1
461 531 1
462 463 1
462 464 1
462 465 1
463 464 1
463 465 1
463 466 1
463 468 1
463 479 1
463 482 1
463 483 1
464 465 1
464 478 1
464 479 1
464 482 1
464 528 1
464 531 1
464 532 1
464 548 1
465 466 1
465 468 1
465 520 1
465 531 1
465 532 1
465 535 1
466 467 1
466 468 1
467 468 1
467 483 1
467 486 1
468 482 1
468 483 1
468 486 1
468 532 1
468 535 1
468 536 1
468 552 1
469 470 1
469 471 1
469 473 1
469 488 1
469 489 1
470 471 1
470 473 1
470 522 1
470 538 1
470 540 1
471 472 1
471 473 1
471 474 1
472 473 1
472 474 1
472 475 1
472 477 1
472 489 1
472 492 1
472 493 1
473 474 1
473 488 1
473 489 1
473 492 1
473 538 1
473 540 1
473 541 1
473 558 1
474 475 1
474 477 1
474 524 1
474 540 1
474 541 1
474 544 1
475 476 1
475 477 1
475 478 1
476 477 1
476 478 1
476 479 1
476 481 1
476 493 1
476 496 1
476 497 1
477 478 1
477 492 1
477 493 1
477 496 1
477 541 1
477 544 1
477 545 1
477 562 1
478 479 1
478 481 1
478 528 1
478 544 1
478 545 1
478 548 1
479 480 1
479 481 1
479 482 1
480 481 1
480 482 1
480 483 1
480 485 1
480 497 1
480 500 1
480 501 1
481 482 1
481 496 1
481 497 1
481 500 1
481 545 1
481 548 1
481 549 1
481 566 1
482 483 1
482 485 1
482 532 1
482 548 1
482 549 1
482 552 1
483 484 1
483 485 1
483 486 1
484 485 1
484 486 1
484 501 1
484 504 1
485 486 1
485 500 1
485 501 1
485 504 1
485 549 1
485 552 1
485 553 1
485 570 1
486 536 1
486 552 1
486 553 1
487 488 1
487 489 1
487 491 1
487 505 1
488 489 1
488 491 1
488 538 1
488 556 1
488 558 1
489 490 1
489 491 1
489 492 1
490 491 1
490 492 1
490 493 1
490 495 1
490 505 1
490 507 1
490 508 1
491 492 1
491 505 1
491 507 1
491 556 1
491 558 1
491 559 1
491 574 1
492 493 1
492 495 1
492 541 1
492 558 1
492 559 1
492 562 1
493 494 1
493 495 1
493 496 1
494 495 1
494 496 1
494 497 1
494 499 1
494 508 1
494 511 1
494 512 1
495 496 1
495 507 1
495 508 1
495 511 1
495 559 1
495 562 1
495 563 1
495 577 1
496 497 1
496 499 1
496 545 1
496 562 1
496 563 1
496 566 1
497 498 1
497 499 1
497 500 1
498 499 1
498 500 1
498 501 1
498 503 1
498 512 1
498 515 1
498 516 1
499 500 1
499 511 1
499 512 1
499 515 1
499 563 1
499 566 1
499 567 1
499 581 1
500 501 1
500 503 1
500 549 1
500 566 1
500 567 1
500 570 1
501 502 1
501 503 1
501 504 1
502 503 1
502 504 1
502 516 1
503 504 1
503 515 1
503 516 1
503 567 1
503 570 1
503 571 1
503 585 1
504 553 1
504 570 1
504 571 1
505 506 1
505 507 1
506 507 1
506 508 1
506 510 1
507 508 1
507 510 1
507 559 1
507 574 1
507 575 1
507 577 1
508 509 1
508 510 1
508 511 1
509 510 1
509 511 1
509 512 1
509 514 1
510 511 1
510 575 1
510 577 1
510 578 1
511 512 1
511 514 1
511 563 1
511 577 1
511 578 1
511 581 1
512 513 1
512 514 1
512 515 1
513 514 1
513 515 1
513 516 1
514 515 1
514 578 1
514 581 1
514 582 1
515 516 1
515 567 1
515 581 1
515 582 1
515 585 1
517 519 1
517 523 1
517 526 1
517 527 1
518 519 1
518 521 1
518 527 1
518 530 1
518 531 1
519 526 1
519 527 1
519 530 1
519 586 1
519 587 1
519 596 1
520 521 1
520 531 1
520 534 1
520 535 1
521 530 1
521 531 1
521 534 1
521 587 1
521 589 1
521 600 1
522 523 1
522 525 1
522 539 1
522 540 1
523 524 1
523 525 1
523 526 1
524 525 1
524 526 1
524 527 1
524 529 1
524 540 1
524 543 1
524 544 1
525 526 1
525 539 1
525 540 1
525 543 1
525 591 1
525 592 1
525 593 1
525 609 1
526 527 1
526 529 1
526 586 1
526 592 1
526 593 1
526 596 1
527 528 1
527 529 1
527 530 1
528 529 1
528 530 1
528 531 1
528 533 1
528 544 1
528 547 1
528 548 1
529 530 1
529 543 1
529 544 1
529 547 1
529 593 1
529 596 1
529 597 1
529 613 1
530 531 1
530 533 1
530 587 1
530 596 1
530 597 1
530 600 1
531 532 1
531 533 1
531 534 1
532 533 1
532 534 1
532 535 1
532 537 1
532 548 1
532 551 1
532 552 1
533 534 1
533 547 1
533 548 1
533 551 1
533 597 1
533 600 1
533 601 1
533 617 1
534 535 1
534 537 1
534 589 1
534 600 1
534 601 1
534 604 1
535 536 1
535 537 1
536 537 1
536 552 1
536 555 1
537 551 1
537 552 1
537 555 1
537 601 1
537 604 1
537 605 1
537 621 1
538 539 1
538 540 1
538 542 1
538 557 1
538 558 1
539 540 1
539 542 1
539 591 1
539 607 1
539 609 1
540 541 1
540 542 1
540 543 1
541 542 1
541 543 1
541 544 1
541 546 1
541 558 1
541 561 1
541 562 1
542 543 1
542 557 1
542 558 1
542 561 1
542 607 1
542 609 1
542 610 1
542 627 1
543 544 1
543 546 1
543 593 1
543 609 1
543 610 1
543 613 1
544 545 1
544 546 1
544 547 1
545 546 1
545 547 1
545 548 1
545 550 1
545 562 1
545 565 1
545 566 1
546 547 1
546 561 1
546 562 1
546 565 1
546 610 1
546 613 1
546 614 1
546 631 1
547 548 1
547 550 1
547 597 1
547 613 1
547 614 1
547 617 1
548 549 1
548 550 1
548 551 1
549 550 1
549 551 1
549 552 1
549 554 1
549 566 1
549 569 1
549 570 1
550 551 1
550 565 1
550 566 1
550 569 1
550 614 1
550 617 1
550 618 1
550 635 1
551 552 1
551 554 1
551 601 1
551 617 1
551 618 1
551 621 1
552 553 1
552 554 1
552 555 1
553 554 1
553 555 1
553 570 1
553 573 1
554 555 1
554 569 1
554 570 1
554 573 1
554 618 1
554 621 1
554 622 1
554 639 1
555 605 1
555 621 1
555 622 1
556 557 1
556 558 1
556 560 1
556 574 1
557 558 1
557 560 1
557 607 1
557 625 1
557 627 1
558 559 1
558 560 1
558 561 1
559 560 1
559 561 1
559 562 1
559 564 1
559 574 1
559 576 1
559 577 1
560 561 1
560 574 1
560 576 1
560 625 1
560 627 1
560 628 1
560 643 1
561 562 1
561 564 1
561 610 1
561 627 1
561 628 1
561 631 1
562 563 1
562 564 1
562 565 1
563 564 1
563 565 1
563 566 1
563 568 1
563 577 1
563 580 1
563 581 1
564 565 1
564 576 1
564 577 1
564 580 1
564 628 1
564 631 1
564 632 1
564 646 1
565 566 1
565 568 1
565 614 1
565 631 1
565 632 1
565 635 1
566 567 1
566 568 1
566 569 1
567 568 1
567 569 1
567 570 1
567 572 1
567 581 1
567 584 1
567 585 1
568 569 1
568 580 1
568 581 1
568 584 1
568 632 1
568 635 1
568 636 1
568 650 1
569 570 1
569 572 1
569 618 1
569 635 1
569 636 1
569 639 1
570 571 1
570 572 1
570 573 1
571 572 1
571 573 1
571 585 1
572 573 1
572 584 1
572 585 1
572 636 1
572 639 1
572 640 1
572 654 1
573 622 1
573 639 1
573 640 1
574 575 1
574 576 1
575 576 1
575 577 1
575 579 1
576 577 1
576 579 1
576 628 1
576 643 1
576 644 1
576 646 1
577 578 1
577 579 1
577 580 1
578 579 1
578 580 1
578 581 1
578 583 1
579 580 1
579 644 1
579 646 1
579 647 1
580 581 1
580 583 1
580 632 1
580 646 1
580 647 1
580 650 1
581 582 1
581 583 1
581 584 1
582 583 1
582 584 1
582 585 1
583 584 1
583 647 1
583 650 1
583 651 1
584 585 1
584 636 1
584 650 1
584 651 1
584 654 1
586 588 1
586 592 1
586 595 1
586 596 1
587 588 1
587 590 1
587 596 1
587 599 1
587 600 1
588 595 1
588 596 1
588 599 1
588 655 1
588 656 1
588 665 1
589 590 1
589 600 1
589 603 1
589 604 1
590 599 1
590 600 1
590 603 1
590 656 1
590 658 1
590 669 1
591 592 1
591 594 1
591 608 1
591 609 1
592 593 1
592 594 1
592 595 1
593 594 1
593 595 1
593 596 1
593 598 1
593 609 1
593 612 1
593 613 1
594 595 1
594 608 1
594 609 1
594 612 1
594 660 1
594 661 1
594 662 1
594 678 1
595 596 1
595 598 1
595 655 1
595 661 1
595 662 1
595 665 1
596 597 1
596 598 1
596 599 1
597 598 1
597 599 1
597 600 1
597 602 1
597 613 1
597 616 1
597 617 1
598 599 1
598 612 1
598 613 1
598 616 1
598 662 1
598 665 1
598 666 1
598 682 1
599 600 1
599 602 1
599 656 1
599 665 1
599 666 1
599 669 1
600 601 1
600 602 1
600 603 1
601 602 1
601 603 1
601 604 1
601 606 1
601 617 1
601 620 1
601 621 1
602 603 1
602 616 1
602 617 1
602 620 1
602 666 1
602 669 1
602 670 1
602 686 1
603 604 1
603 606 1
603 658 1
603 669 1
603 670 1
603 673 1
604 605 1
604 606 1
605 606 1
605 621 1
605 624 1
606 620 1
606 621 1
606 624 1
606 670 1
606 673 1
606 674 1
606 690 1
607 608 1
607 609 1
607 611 1
607 626 1
607 627 1
608 609 1
608 611 1
608 660 1
608 676 1
608 678 1
609 610 1
609 611 1
609 612 1
610 611 1
610 612 1
610 613 1
610 615 1
610 627 1
610 630 1
610 631 1
611 612 1
611 626 1
611 627 1
611 630 1
611 676 1
611 678 1
611 679 1
611 696 1
612 613 1
612 615 1
612 662 1
612 678 1
612 679 1
612 682 1
613 614 1
613 615 1
613 616 1
614 615 1
614 616 1
614 617 1
614 619 1
614 631 1
614 634 1
614 635 1
615 616 1
615 630 1
615 631 1
615 634 1
615 679 1
615 682 1
615 683 1
615 700 1
616 617 1
616 619 1
616 666 1
616 682 1
616 683 1
616 686 1
617 618 1
617 619 1
617 620 1
618 619 1
618 620 1
618 621 1
618 623 1
618 635 1
618 638 1
618 639 1
619 620 1
619 634 1
619 635 1
619 638 1
619 683 1
619 686 1
619 687 1
619 704 1
620 621 1
620 623 1
620 670 1
620 686 1
620 687 1
620 690 1
621 622 1
621 623 1
621 624 1
622 623 1
622 624 1
622 639 1
622 642 1
623 624 1
623 638 1
623 639 1
623 642 1
623 687 1
623 690 1
623 691 1
623 708 1
624 674 1
624 690 1
624 691 1
625 626 1
625 627 1
625 629 1
625 643 1
626 627 1
626 629 1
626 676 1
626 694 1
626 696 1
627 628 1
627 629 1
627 630 1
628 629 1
628 630 1
628 631 1
628 633 1
628 643 1
628 645 1
628 646 1
629 630 1
629 643 1
629 645 1
629 694 1
629 696 1
629 697 1
629 712 1
630 631 1
630 633 1
630 679 1
630 696 1
630 697 1
630 700 1
631 632 1
631 633 1
631 634 1
632 633 1
632 634 1
632 635 1
632 637 1
632 646 1
632 649 1
632 650 1
633 634 1
633 645 1
633 646 1
633 649 1
633 697 1
633 700 1
633 701 1
633 715 1
634 635 1
634 637 1
634 683 1
634 700 1
634 701 1
634 704 1
635 636 1
635 637 1
635 638 1
636 637 1
636 638 1
636 639 1
636 641 1
636 650 1
636 653 1
636 654 1
637 638 1
637 649 1
637 650 1
637 653 1
637 701 1
637 704 1
637 705 1
637 719 1
638 639 1
638 641 1
638 687 1
638 704 1
638 705 1
638 708 1
639 640 1
639 641 1
639 642 1
640 641 1
640 642 1
640 654 1
641 642 1
641 653 1
641 654 1
641 705 1
641 708 1
641 709 1
641 723 1
642 691 1
642 708 1
642 709 1
643 644 1
643 645 1
644 645 1
644 646 1
644 648 1
645 646 1
645 648 1
645 697 1
645 712 1
645 713 1
645 715 1
646 647 1
646 648 1
646 649 1
647 648 1
647 649 1
647 650 1
647 652 1
648 649 1
648 713 1
648 715 1
648 716 1
649 650 1
649 652 1
649 701 1
649 715 1
649 716 1
649 719 1
650 651 1
650 652 1
650 653 1
651 652 1
651 653 1
651 654 1
652 653 1
652 716 1
652 719 1
652 720 1
653 654 1
653 705 1
653 719 1
653 720 1
653 723 1
655 657 1
655 661 1
655 664 1
655 665 1
656 657 1
656 659 1
656 665 1
656 668 1
656 669 1
657 664 1
657 665 1
657 668 1
657 724 1
657 725 1
657 734 1
658 659 1
658 669 1
658 672 1
658 673 1
659 668 1
659 669 1
659 672 1
659 725 1
659 727 1
659 738 1
660 661 1
660 663 1
660 677 1
660 678 1
661 662 1
661 663 1
661 664 1
662 663 1
662 664 1
662 665 1
662 667 1
662 678 1
662 681 1
662 682 1
663 664 1
663 677 1
663 678 1
663 681 1
663 729 1
663 730 1
663 731 1
663 747 1
664 665 1
664 667 1
664 724 1
664 730 1
664 731 1
664 734 1
665 666 1
665 667 1
665 668 1
666 667 1
666 668 1
666 669 1
666 671 1
666 682 1
666 685 1
666 686 1
667 668 1
667 681 1
667 682 1
667 685 1
667 731 1
667 734 1
667 735 1
667 751 1
668 669 1
668 671 1
668 725 1
668 734 1
668 735 1
668 738 1
669 670 1
669 671 1
669 672 1
670 671 1
670 672 1
670 673 1
670 675 1
670 686 1
670 689 1
670 690 1
671 672 1
671 685 1
671 686 1
671 689 1
671 735 1
671 738 1
671 739 1
671 755 1
672 673 1
672 675 1
672 727 1
672 738 1
672 739 1
672 742 1
673 674 1
673 675 1
674 675 1
674 690 1
674 693 1
675 689 1
675 690 1
675 693 1
675 739 1
675 742 1
675 743 1
675 759 1
676 677 1
676 678 1
676 680 1
676 695 1
676 696 1
677 678 1
677 680 1
677 729 1
677 745 1
677 747 1
678 679 1
678 680 1
678 681 1
679 680 1
679 681 1
679 682 1
679 684 1
679 696 1
679 699 1
679 700 1
680 681 1
680 695 1
680 696 1
680 699 1
680 745 1
680 747 1
680 748 1
680 765 1
681 682 1
681 684 1
681 731 1
681 747 1
681 748 1
681 751 1
682 683 1
682 684 1
682 685 1
683 684 1
683 685 1
683 686 1
683 688 1
683 700 1
683 703 1
683 704 1
684 685 1
684 699 1
684 700 1
684 703 1
684 748 1
684 751 1
684 752 1
684 769 1
685 686 1
685 688 1
685 735 1
685 751 1
685 752 1
685 755 1
686 687 1
686 688 1
686 689 1
687 688 1
687 689 1
687 690 1
687 692 1
687 704 1
687 707 1
687 708 1
688 689 1
688 703 1
688 704 1
688 707 1
688 752 1
688 755 1
688 756 1
688 773 1
689 690 1
689 692 1
689 739 1
689 755 1
689 756 1
689 759 1
690 691 1
690 692 1
690 693 1
691 692 1
691 693 1
691 708 1
691 711 1
692 693 1
692 707 1
692 708 1
692 711 1
692 756 1
692 759 1
692 760 1
692 777 1
693 743 1
693 759 1
693 760 1
694 695 1
694 696 1
694 698 1
694 712 1
695 696 1
695 698 1
695 745 1
695 763 1
695 765 1
696 697 1
696 698 1
696 699 1
697 698 1
697 699 1
697 700 1
697 702 1
697 712 1
697 714 1
697 715 1
698 699 1
698 712 1
698 714 1
698 763 1
698 765 1
698 766 1
698 781 1
699 700 1
699 702 1
699 748 1
699 765 1
699 766 1
699 769 1
700 701 1
700 702 1
700 703 1
701 702 1
701 703 1
701 704 1
701 706 1
701 715 1
701 718 1
701 719 1
702 703 1
702 714 1
702 715 1
702 718 1
702 766 1
702 769 1
702 770 1
702 784 1
703 704 1
703 706 1
703 752 1
703 769 1
703 770 1
703 773 1
704 705 1
704 706 1
704 707 1
705 706 1
705 707 1
705 708 1
705 710 1
705 719 1
705 722 1
705 723 1
706 707 1
706 718 1
706 719 1
706 722 1
706 770 1
706 773 1
706 774 1
706 788 1
707 708 1
707 710 1
707 756 1
707 773 1
707 774 1
707 777 1
708 709 1
708 710 1
708 711 1
709 710 1
709 711 1
709 723 1
710 711 1
710 722 1
710 723 1
710 774 1
710 777 1
710 778 1
710 792 1
711 760 1
711 777 1
711 778 1
712 713 1
712 714 1
713 714 1
713 715 1
713 717 1
714 715 1
714 717 1
714 766 1
714 781 1
714 782 1
714 784 1
715 716 1
715 717 1
715 718 1
716 717 1
716 718 1
716 719 1
716 721 1
717 718 1
717 782 1
717 784 1
717 785 1
718 719 1
718 721 1
718 770 1
718 784 1
718 785 1
718 788 1
719 720 1
719 721 1
719 722 1
720 721 1
720 722 1
720 723 1
721 722 1
721 785 1
721 788 1
721 789 1
722 723 1
722 774 1
722 788 1
722 789 1
722 792 1
724 726 1
724 730 1
724 733 1
724 734 1
725 726 1
725 728 1
725 734 1
725 737 1
725 738 1
726 733 1
726 734 1
726 737 1
726 793 1
726 794 1
726 803 1
727 728 1
727 738 1
727 741 1
727 742 1
728 737 1
728 738 1
728 741 1
728 794 1
728 796 1
728 807 1
729 730 1
729 732 1
729 746 1
729 747 1
730 731 1
730 732 1
730 733 1
731 732 1
731 733 1
731 734 1
731 736 1
731 747 1
731 750 1
731 751 1
732 733 1
732 746 1
732 747 1
732 750 1
732 798 1
732 799 1
732 800 1
732 816 1
733 734 1
733 736 1
733 793 1
733 799 1
733 800 1
733 803 1
734 735 1
734 736 1
734 737 1
735 736 1
735 737 1
735 738 1
735 740 1
735 751 1
735 754 1
735 755 1
736 737 1
736 750 1
736 751 1
736 754 1
736 800 1
736 803 1
736 804 1
736 820 1
737 738 1
737 740 1
737 794 1
737 803 1
737 804 1
737 807 1
738 739 1
738 740 1
738 741 1
739 740 1
739 741 1
739 742 1
739 744 1
739 755 1
739 758 1
739 759 1
740 741 1
740 754 1
740 755 1
740 758 1
740 804 1
740 807 1
740 808 1
740 824 1
741 742 1
741 744 1
741 796 1
741 807 1
741 808 1
741 811 1
742 743 1
742 744 1
743 744 1
743 759 1
743 762 1
744 758 1
744 759 1
744 762 1
744 808 1
744 811 1
744 812 1
744 828 1
745 746 1
745 747 1
745 749 1
745 764 1
745 765 1
746 747 1
746 749 1
746 798 1
746 814 1
746 816 1
747 748 1
747 749 1
747 750 1
748 749 1
748 750 1
748 751 1
748 753 1
748 765 1
748 768 1
748 769 1
749 750 1
749 764 1
749 765 1
749 768 1
749 814 1
749 816 1
749 817 1
749 834 1
750 751 1
750 753 1
750 800 1
750 816 1
750 817 1
750 820 1
751 752 1
751 753 1
751 754 1
752 753 1
752 754 1
752 755 1
752 757 1
752 769 1
752 772 1
752 773 1
753 754 1
753 768 1
753 769 1
753 772 1
753 817 1
753 820 1
753 821 1
753 838 1
754 755 1
754 757 1
754 804 1
754 820 1
754 821 1
754 824 1
755 756 1
755 757 1
755 758 1
756 757 1
756 758 1
756 759 1
756 761 1
756 773 1
756 776 1
756 777 1
757 758 1
757 772 1
757 773 1
757 776 1
757 821 1
757 824 1
757 825 1
757 842 1
758 759 1
758 761 1
758 808 1
758 824 1
758 825 1
758 828 1
759 760 1
759 761 1
759 762 1
760 761 1
760 762 1
760 777 1
760 780 1
761 762 1
761 776 1
761 777 1
761 780 1
761 825 1
761 828 1
761 829 1
761 846 1
762 812 1
762 828 1
762 829 1
763 764 1
763 765 1
763 767 1
763 781 1
764 765 1
764 767 1
764 814 1
764 832 1
764 834 1
765 766 1
765 767 1
765 768 1
766 767 1
766 768 1
766 769 1
766 771 1
766 781 1
766 783 1
766 784 1
767 768 1
767 781 1
767 783 1
767 832 1
767 834 1
767 835 1
767 850 1
768 769 1
768 771 1
768 817 1
768 834 1
768 835 1
768 838 1
769 770 1
769 771 1
769 772 1
770 771 1
770 772 1
770 773 1
770 775 1
770 784 1
770 787 1
770 788 1
771 772 1
771 783 1
771 784 1
771 787 1
771 835 1
771 838 1
771 839 1
771 853 1
772 773 1
772 775 1
772 821 1
772 838 1
772 839 1
772 842 1
773 774 1
773 775 1
773 776 1
774 775 1
774 776 1
774 777 1
774 779 1
774 788 1
774 791 1
774 792 1
775 776 1
775 787 1
775 788 1
775 791 1
775 839 1
775 842 1
775 843 1
775 857 1
776 777 1
776 779 1
776 825 1
776 842 1
776 843 1
776 846 1
777 778 1
777 779 1
777 780 1
778 779 1
778 780 1
778 792 1
779 780 1
779 791 1
779 792 1
779 843 1
779 846 1
779 847 1
779 861 1
780 829 1
780 846 1
780 847 1
781 782 1
781 783 1
782 783 1
782 784 1
782 786 1
783 784 1
783 786 1
783 835 1
783 850 1
783 851 1
783 853 1
784 785 1
784 786 1
784 787 1
785 786 1
785 787 1
785 788 1
785 790 1
786 787 1
786 851 1
786 853 1
786 854 1
787 788 1
787 790 1
787 839 1
787 853 1
787 854 1
787 857 1
788 789 1
788 790 1
788 791 1
789 790 1
789 791 1
789 792 1
790 791 1
790 854 1
790 857 1
790 858 1
791 792 1
791 843 1
791 857 1
791 858 1
791 861 1
793 795 1
793 799 1
793 802 1
793 803 1
794 795 1
794 797 1
794 803 1
794 806 1
794 807 1
795 802 1
795 803 1
795 806 1
795 862 1
795 863 1
795 872 1
796 797 1
796 807 1
796 810 1
796 811 1
797 806 1
797 807 1
797 810 1
797 863 1
797 865 1
797 876 1
798 799 1
798 801 1
798 815 1
798 816 1
799 800 1
799 801 1
799 802 1
800 801 1
800 802 1
800 803 1
800 805 1
800 816 1
800 819 1
800 820 1
801 802 1
801 815 1
801 816 1
801 819 1
801 867 1
801 868 1
801 869 1
801 885 1
802 803 1
802 805 1
802 862 1
802 868 1
802 869 1
802 872 1
803 804 1
803 805 1
803 806 1
804 805 1
804 806 1
804 807 1
804 809 1
804 820 1
804 823 1
804 824 1
805 806 1
805 819 1
805 820 1
805 823 1
805 869 1
805 872 1
805 873 1
805 889 1
806 807 1
806 809 1
806 863 1
806 872 1
806 873 1
806 876 1
807 808 1
807 809 1
807 810 1
808 809 1
808 810 1
808 811 1
808 813 1
808 824 1
808 827 1
808 828 1
809 810 1
809 823 1
809 824 1
809 827 1
809 873 1
809 876 1
809 877 1
809 893 1
810 811 1
810 813 1
810 865 1
810 876 1
810 877 1
810 880 1
811 812 1
811 813 1
812 813 1
812 828 1
812 831 1
813 827 1
813 828 1
813 831 1
813 877 1
813 880 1
813 881 1
813 897 1
814 815 1
814 816 1
814 818 1
814 833 1
814 834 1
815 816 1
815 818 1
815 867 1
815 883 1
815 885 1
816 817 1
816 818 1
816 819 1
817 818 1
817 819 1
817 820 1
817 822 1
817 834 1
817 837 1
817 838 1
818 819 1
818 833 1
818 834 1
818 837 1
818 883 1
818 885 1
818 886 1
818 903 1
819 820 1
819 822 1
819 869 1
819 885 1
819 886 1
819 889 1
820 821 1
820 822 1
820 823 1
821 822 1
821 823 1
821 824 1
821 826 1
821 838 1
821 841 1
821 842 1
822 823 1
822 837 1
822 838 1
822 841 1
822 886 1
822 889 1
822 890 1
822 907 1
823 824 1
823 826 1
823 873 1
823 889 1
823 890 1
823 893 1
824 825 1
824 826 1
824 827 1
825 826 1
825 827 1
825 828 1
825 830 1
825 842 1
825 845 1
825 846 1
826 827 1
826 841 1
826 842 1
826 845 1
826 890 1
826 893 1
826 894 1
826 911 1
827 828 1
827 830 1
827 877 1
827 893 1
827 894 1
827 897 1
828 829 1
828 830 1
828 831 1
829 830 1
829 831 1
829 846 1
829 849 1
830 831 1
830 845 1
830 846 1
830 849 1
830 894 1
830 897 1
830 898 1
830 915 1
831 881 1
831 897 1
831 898 1
832 833 1
832 834 1
832 836 1
832 850 1
833 834 1
833 836 1
833 883 1
833 901 1
833 903 1
834 835 1
834 836 1
834 837 1
835 836 1
835 837 1
835 838 1
835 840 1
835 850 1
835 852 1
835 853 1
836 837 1
836 850 1
836 852 1
836 901 1
836 903 1
836 904 1
836 919 1
837 838 1
837 840 1
837 886 1
837 903 1
837 904 1
837 907 1
838 839 1
838 840 1
838 841 1
839 840 1
839 841 1
839 842 1
839 844 1
839 853 1
839 856 1
839 857 1
840 841 1
840 852 1
840 853 1
840 856 1
840 904 1
840 907 1
840 908 1
840 922 1
841 842 1
841 844 1
841 890 1
841 907 1
841 908 1
841 911 1
842 843 1
842 844 1
842 845 1
843 844 1
843 845 1
843 846 1
843 848 1
843 857 1
843 860 1
843 861 1
844 845 1
844 856 1
844 857 1
844 860 1
844 908 1
844 911 1
844 912 1
844 926 1
845 846 1
845 848 1
845 894 1
845 911 1
845 912 1
845 915 1
846 847 1
846 848 1
846 849 1
847 848 1
847 849 1
847 861 1
848 849 1
848 860 1
848 861 1
848 912 1
848 915 1
848 916 1
848 930 1
849 898 1
849 915 1
849 916 1
850 851 1
850 852 1
851 852 1
851 853 1
851 855 1
852 853 1
852 855 1
852 904 1
852 919 1
852 920 1
852 922 1
853 854 1
853 855 1
853 856 1
854 855 1
854 856 1
854 857 1
854 859 1
855 856 1
855 920 1
855 922 1
855 923 1
856 857 1
856 859 1
856 908 1
856 922 1
856 923 1
856 926 1
857 858 1
857 859 1
857 860 1
858 859 1
858 860 1
858 861 1
859 860 1
859 923 1
859 926 1
859 927 1
860 861 1
860 912 1
860 926 1
860 927 1
860 930 1
862 864 1
862 868 1
862 871 1
862 872 1
863 864 1
863 866 1
863 872 1
863 875 1
863 876 1
864 871 1
864 872 1
864 875 1
864 931 1
864 932 1
864 941 1
865 866 1
865 876 1
865 879 1
865 880 1
866 875 1
866 876 1
866 879 1
866 932 1
866 934 1
866 945 1
867 868 1
867 870 1
867 884 1
867 885 1
868 869 1
868 870 1
868 871 1
869 870 1
869 871 1
869 872 1
869 874 1
869 885 1
869 888 1
869 889 1
870 871 1
870 884 1
870 885 1
870 888 1
870 936 1
870 937 1
870 938 1
870 954 1
871 872 1
871 874 1
871 931 1
871 937 1
871 938 1
871 941 1
872 873 1
872 874 1
872 875 1
873 874 1
873 875 1
873 876 1
873 878 1
873 889 1
873 892 1
873 893 1
874 875 1
874 888 1
874 889 1
874 892 1
874 938 1
874 941 1
874 942 1
874 958 1
875 876 1
875 878 1
875 932 1
875 941 1
875 942 1
875 945 1
876 877 1
876 878 1
876 879 1
877 878 1
877 879 1
877 880 1
877 882 1
877 893 1
877 896 1
877 897 1
878 879 1
878 892 1
878 893 1
878 896 1
878 942 1
878 945 1
878 946 1
878 962 1
879 880 1
879 882 1
879 934 1
879 945 1
879 946 1
879 949 1
880 881 1
880 882 1
881 882 1
881 897 1
881 900 1
882 896 1
882 897 1
882 900 1
882 946 1
882 949 1
882 950 1
882 966 1
883 884 1
883 885 1
883 887 1
883 902 1
883 903 1
884 885 1
884 887 1
884 936 1
884 952 1
884 954 1
885 886 1
885 887 1
885 888 1
886 887 1
886 888 1
886 889 1
886 891 1
886 903 1
886 906 1
886 907 1
887 888 1
887 902 1
887 903 1
887 906 1
887 952 1
887 954 1
887 955 1
887 972 1
888 889 1
888 891 1
888 938 1
888 954 1
888 955 1
888 958 1
889 890 1
889 891 1
889 892 1
890 891 1
890 892 1
890 893 1
890 895 1
890 907 1
890 910 1
890 911 1
891 892 1
891 906 1
891 907 1
891 910 1
891 955 1
891 958 1
891 959 1
891 976 1
892 893 1
892 895 1
892 942 1
892 958 1
892 959 1
892 962 1
893 894 1
893 895 1
893 896 1
894 895 1
894 896 1
894 897 1
894 899 1
894 911 1
894 914 1
894 915 1
895 896 1
895 910 1
895 911 1
895 914 1
895 959 1
895 962 1
895 963 1
895 980 1
896 897 1
896 899 1
896 946 1
896 962 1
896 963 1
896 966 1
897 898 1
897 899 1
897 900 1
898 899 1
898 900 1
898 915 1
898 918 1
899 900 1
899 914 1
899 915 1
899 918 1
899 963 1
899 966 1
899 967 1
899 984 1
900 950 1
900 966 1
900 967 1
901 902 1
901 903 1
901 905 1
901 919 1
902 903 1
902 905 1
902 952 1
902 970 1
902 972 1
903 904 1
903 905 1
903 906 1
904 905 1
904 906 1
904 907 1
904 909 1
904 919 1
904 921 1
904 922 1
905 906 1
905 919 1
905 921 1
905 970 1
905 972 1
905 973 1
905 988 1
906 907 1
906 909 1
906 955 1
906 972 1
906 973 1
906 976 1
907 908 1
907 909 1
907 910 1
908 909 1
908 910 1
908 911 1
908 913 1
908 922 1
908 925 1
908 926 1
909 910 1
909 921 1
909 922 1
909 925 1
909 973 1
909 976 1
909 977 1
909 991 1
910 911 1
910 913 1
910 959 1
910 976 1
910 977 1
910 980 1
911 912 1
911 913 1
911 914 1
912 913 1
912 914 1
912 915 1
912 917 1
912 926 1
912 929 1
912 930 1
913 914 1
913 925 1
913 926 1
913 929 1
913 977 1
913 980 1
913 981 1
913 995 1
914 915 1
914 917 1
914 963 1
914 980 1
914 981 1
914 984 1
915 916 1
915 917 1
915 918 1
916 917 1
916 918 1
916 930 1
917 918 1
917 929 1
917 930 1
917 981 1
917 984 1
917 985 1
917 999 1
918 967 1
918 984 1
918 985 1
919 920 1
919 921 1
920 921 1
920 922 1
920 924 1
921 922 1
921 924 1
921 973 1
921 988 1
921 989 1
921 991 1
922 923 1
922 924 1
922 925 1
923 924 1
923 925 1
923 926 1
923 928 1
924 925 1
924 989 1
924 991 1
924 992 1
925 926 1
925 928 1
925 977 1
925 991 1
925 992 1
925 995 1
926 927 1
926 928 1
926 929 1
927 928 1
927 929 1
927 930 1
928 929 1
928 992 1
928 995 1
928 996 1
929 930 1
929 981 1
929 995 1
929 996 1
929 999 1
931 933 1
931 937 1
931 940 1
931 941 1
932 933 1
932 935 1
932 941 1
932 944 1
932 945 1
933 940 1
933 941 1
933 944 1
933 1000 1
933 1001 1
933 1010 1
934 935 1
934 945 1
934 948 1
934 949 1
935 944 1
935 945 1
935 948 1
935 1001 1
935 1003 1
935 1014 1
936 937 1
936 939 1
936 953 1
936 954 1
937 938 1
937 939 1
937 940 1
938 939 1
938 940 1
938 941 1
938 943 1
938 954 1
938 957 1
938 958 1
939 940 1
939 953 1
939 954 1
939 957 1
939 1005 1
939 1006 1
939 1007 1
939 1023 1
940 941 1
940 943 1
940 1000 1
940 1006 1
940 1007 1
940 1010 1
941 942 1
941 943 1
941 944 1
942 943 1
942 944 1
942 945 1
942 947 1
942 958 1
942 961 1
942 962 1
943 944 1
943 957 1
943 958 1
943 961 1
943 1007 1
943 1010 1
943 1011 1
943 1027 1
944 945 1
944 947 1
944 1001 1
944 1010 1
944 1011 1
944 1014 1
945 946 1
945 947 1
945 948 1
946 947 1
946 948 1
946 949 1
946 951 1
946 962 1
946 965 1
946 966 1
947 948 1
947 961 1
947 962 1
947 965 1
947 1011 1
947 1014 1
947 1015 1
947 1031 1
948 949 1
948 951 1
948 1003 1
948 1014 1
948 1015 1
948 1018 1
949 950 1
949 951 1
950 951 1
950 966 1
950 969 1
951 965 1
951 966 1
951 969 1
951 1015 1
951 1018 1
951 1019 1
951 1035 1
952 953 1
952 954 1
952 956 1
952 971 1
952 972 1
953 954 1
953 956 1
953 1005 1
953 1021 1
953 1023 1
954 955 1
954 956 1
954 957 1
955 956 1
955 957 1
955 958 1
955 960 1
955 972 1
955 975 1
955 976 1
956 957 1
956 971 1
956 972 1
956 975 1
956 1021 1
956 1023 1
956 1024 1
956 1041 1
957 958 1
957 960 1
957 1007 1
957 1023 1
957 1024 1
957 1027 1
958 959 1
958 960 1
958 961 1
959 960 1
959 961 1
959 962 1
959 964 1
959 976 1
959 979 1
959 980 1
960 961 1
960 975 1
960 976 1
960 979 1
960 1024 1
960 1027 1
960 1028 1
960 1045 1
961 962 1
961 964 1
961 1011 1
961 1027 1
961 1028 1
961 1031 1
962 963 1
962 964 1
962 965 1
963 964 1
963 965 1
963 966 1
963 968 1
963 980 1
963 983 1
963 984 1
964 965 1
964 979 1
964 980 1
964 983 1
964 1028 1
964 1031 1
964 1032 1
964 1049 1
965 966 1
965 968 1
965 1015 1
965 1031 1
965 1032 1
965 1035 1
966 967 1
966 968 1
966 969 1
967 968 1
967 969 1
967 984 1
967 987 1
968 969 1
968 983 1
968 984 1
968 987 1
968 1032 1
968 1035 1
968 1036 1
968 1053 1
969 1019 1
969 1035 1
969 1036 1
970 971 1
970 972 1
970 974 1
970 988 1
971 972 1
971 974 1
971 1021 1
971 1039 1
971 1041 1
972 973 1
972 974 1
972 975 1
973 974 1
973 975 1
973 976 1
973 978 1
973 988 1
973 990 1
973 991 1
974 975 1
974 988 1
974 990 1
974 1039 1
974 1041 1
974 1042 1
974 1057 1
975 976 1
975 978 1
975 1024 1
975 1041 1
975 1042 1
975 1045 1
976 977 1
976 978 1
976 979 1
977 978 1
977 979 1
977 980 1
977 982 1
977 991 1
977 994 1
977 995 1
978 979 1
978 990 1
978 991 1
978 994 1
978 1042 1
978 1045 1
978 1046 1
978 1060 1
979 980 1
979 982 1
979 1028 1
979 1045 1
979 1046 1
979 1049 1
980 981 1
980 982 1
980 983 1
981 982 1
981 983 1
981 984 1
981 986 1
981 995 1
981 998 1
981 999 1
982 983 1
982 994 1
982 995 1
982 998 1
982 1046 1
982 1049 1
982 1050 1
982 1064 1
983 984 1
983 986 1
983 1032 1
983 1049 1
983 1050 1
983 1053 1
984 985 1
984 986 1
984 987 1
985 986 1
985 987 1
985 999 1
986 987 1
986 998 1
986 999 1
986 1050 1
986 1053 1
986 1054 1
986 1068 1
987 1036 1
987 1053 1
987 1054 1
988 989 1
988 990 1
989 990 1
989 991 1
989 993 1
990 991 1
990 993 1
990 1042 1
990 1057 1
990 1058 1
990 1060 1
991 992 1
991 993 1
991 994 1
992 993 1
992 994 1
992 995 1
992 997 1
993 994 1
993 1058 1
993 1060 1
993 1061 1
994 995 1
994 997 1
994 1046 1
994 1060 1
994 1061 1
994 1064 1
995 996 1
995 997 1
995 998 1
996 997 1
996 998 1
996 999 1
997 998 1
997 1061 1
997 1064 1
997 1065 1
998 999 1
998 1050 1
998 1064 1
998 1065 1
998 1068 1
1000 1002 1
1000 1006 1
1000 1009 1
1000 1010 1
1001 1002 1
1001 1004 1
1001 1010 1
1001 1013 1
1001 1014 1
1002 1009 1
1002 1010 1
1002 1013 1
1002 1069 1
1002 1070 1
1002 1079 1
1003 1004 1
1003 1014 1
1003 1017 1
1003 1018 1
1004 1013 1
1004 1014 1
1004 1017 1
1004 1070 1
1004 1072 1
1004 1083 1
1005 1006 1
1005 1008 1
1005 1022 1
1005 1023 1
1006 1007 1
1006 1008 1
1006 1009 1
1007 1008 1
1007 1009 1
1007 1010 1
1007 1012 1
1007 1023 1
1007 1026 1
1007 1027 1
1008 1009 1
1008 1022 1
1008 1023 1
1008 1026 1
1008 1074 1
1008 1075 1
1008 1076 1
1008 1092 1
1009 1010 1
1009 1012 1
1009 1069 1
1009 1075 1
1009 1076 1
1009 1079 1
1010 1011 1
1010 1012 1
1010 1013 1
1011 1012 1
1011 1013 1
1011 1014 1
1011 1016 1
1011 1027 1
1011 1030 1
1011 1031 1
1012 1013 1
1012 1026 1
1012 1027 1
1012 1030 1
1012 1076 1
1012 1079 1
1012 1080 1
1012 1096 1
1013 1014 1
1013 1016 1
1013 1070 1
1013 1079 1
1013 1080 1
1013 1083 1
1014 1015 1
1014 1016 1
1014 1017 1
1015 1016 1
1015 1017 1
1015 1018 1
1015 1020 1
1015 1031 1
1015 1034 1
1015 1035 1
1016 1017 1
1016 1030 1
1016 1031 1
1016 1034 1
1016 1080 1
1016 1083 1
1016 1084 1
1016 1100 1
1017 1018 1
1017 1020 1
1017 1072 1
1017 1083 1
1017 1084 1
1017 1087 1
1018 1019 1
1018 1020 1
1019 1020 1
1019 1035 1
1019 1038 1
1020 1034 1
1020 1035 1
1020 1038 1
1020 1084 1
1020 1087 1
1020 1088 1
1020 1104 1
1021 1022 1
1021 1023 1
1021 1025 1
1021 1040 1
1021 1041 1
1022 1023 1
1022 1025 1
1022 1074 1
1022 1090 1
1022 1092 1
1023 1024 1
1023 1025 1
1023 1026 1
1024 1025 1
1024 1026 1
1024 1027 1
1024 1029 1
1024 1041 1
1024 1044 1
1024 1045 1
1025 1026 1
1025 1040 1
1025 1041 1
1025 1044 1
1025 1090 1
1025 1092 1
1025 1093 1
1025 1110 1
1026 1027 1
1026 1029 1
1026 1076 1
1026 1092 1
1026 1093 1
1026 1096 1
1027 1028 1
1027 1029 1
1027 1030 1
1028 1029 1
1028 1030 1
1028 1031 1
1028 1033 1
1028 1045 1
1028 1048 1
1028 1049 1
1029 1030 1
1029 1044 1
1029 1045 1
1029 1048 1
1029 1093 1
1029 1096 1
1029 1097 1
1029 1114 1
1030 1031 1
1030 1033 1
1030 1080 1
1030 1096 1
1030 1097 1
1030 1100 1
1031 1032 1
1031 1033 1
1031 1034 1
1032 1033 1
1032 1034 1
1032 1035 1
1032 1037 1
1032 1049 1
1032 1052 1
1032 1053 1
1033 1034 1
1033 1048 1
1033 1049 1
1033 1052 1
1033 1097 1
1033 1100 1
1033 1101 1
1033 1118 1
1034 1035 1
1034 1037 1
1034 1084 1
1034 1100 1
1034 1101 1
1034 1104 1
1035 1036 1
1035 1037 1
1035 1038 1
1036 1037 1
1036 1038 1
1036 1053 1
1036 1056 1
1037 1038 1
1037 1052 1
1037 1053 1
1037 1056 1
1037 1101 1
1037 1104 1
1037 1105 1
1037 1122 1
1038 1088 1
1038 1104 1
1038 1105 1
1039 1040 1
1039 1041 1
1039 1043 1
1039 1057 1
1040 1041 1
1040 1043 1
1040 1090 1
1040 1108 1
1040 1110 1
1041 1042 1
1041 1043 1
1041 1044 1
1042 1043 1
1042 1044 1
1042 1045 1
1042 1047 1
1042 1057 1
1042 1059 1
1042 1060 1
1043 1044 1
1043 1057 1
1043 1059 1
1043 1108 1
1043 1110 1
1043 1111 1
1043 1126 1
1044 1045 1
1044 1047 1
1044 1093 1
1044 1110 1
1044 1111 1
1044 1114 1
1045 1046 1
1045 1047 1
1045 1048 1
1046 1047 1
1046 1048 1
1046 1049 1
1046 1051 1
1046 1060 1
1046 1063 1
1046 1064 1
1047 1048 1
1047 1059 1
1047 1060 1
1047 1063 1
1047 1111 1
1047 1114 1
1047 1115 1
1047 1129 1
1048 1049 1
1048 1051 1
1048 1097 1
1048 1114 1
1048 1115 1
1048 1118 1
1049 1050 1
1049 1051 1
1049 1052 1
1050 1051 1
1050 1052 1
1050 1053 1
1050 1055 1
1050 1064 1
1050 1067 1
1050 1068 1
1051 1052 1
1051 1063 1
1051 1064 1
1051 1067 1
1051 1115 1
1051 1118 1
1051 1119 1
1051 1133 1
1052 1053 1
1052 1055 1
1052 1101 1
1052 1118 1
1052 1119 1
1052 1122 1
1053 1054 1
1053 1055 1
1053 1056 1
1054 1055 1
1054 1056 1
1054 1068 1
1055 1056 1
1055 1067 1
1055 1068 1
1055 1119 1
1055 1122 1
1055 1123 1
1055 1137 1
1056 1105 1
1056 1122 1
1056 1123 1
1057 1058 1
1057 1059 1
1058 1059 1
1058 1060 1
1058 1062 1
1059 1060 1
1059 1062 1
1059 1111 1
1059 1126 1
1059 1127 1
1059 1129 1
1060 1061 1
1060 1062 1
1060 1063 1
1061 1062 1
1061 1063 1
1061 1064 1
1061 1066 1
1062 1063 1
1062 1127 1
1062 1129 1
1062 1130 1
1063 1064 1
1063 1066 1
1063 1115 1
1063 1129 1
1063 1130 1
1063 1133 1
1064 1065 1
1064 1066 1
1064 1067 1
1065 1066 1
1065 1067 1
1065 1068 1
1066 1067 1
1066 1130 1
1066 1133 1
1066 1134 1
1067 1068 1
1067 1119 1
1067 1133 1
1067 1134 1
1067 1137 1
1069 1071 1
1069 1075 1
1069 1078 1
1069 1079 1
1070 1071 1
1070 1073 1
1070 1079 1
1070 1082 1
1070 1083 1
1071 1078 1
1071 1079 1
1071 1082 1
1071 1138 1
1071 1139 1
1071 1148 1
1072 1073 1
1072 1083 1
1072 1086 1
1072 1087 1
1073 1082 1
1073 1083 1
1073 1086 1
1073 1139 1
1073 1141 1
1073 1152 1
1074 1075 1
1074 1077 1
1074 1091 1
1074 1092 1
1075 1076 1
1075 1077 1
1075 1078 1
1076 1077 1
1076 1078 1
1076 1079 1
1076 1081 1
1076 1092 1
1076 1095 1
1076 1096 1
1077 1078 1
1077 1091 1
1077 1092 1
1077 1095 1
1077 1143 1
1077 1144 1
1077 1145 1
1077 1161 1
1078 1079 1
1078 1081 1
1078 1138 1
1078 1144 1
1078 1145 1
1078 1148 1
1079 1080 1
1079 1081 1
1079 1082 1
1080 1081 1
1080 1082 1
1080 1083 1
1080 1085 1
1080 1096 1
1080 1099 1
1080 1100 1
1081 1082 1
1081 1095 1
1081 1096 1
1081 1099 1
1081 1145 1
1081 1148 1
1081 1149 1
1081 1165 1
1082 1083 1
1082 1085 1
1082 1139 1
1082 1148 1
1082 1149 1
1082 1152 1
1083 1084 1
1083 1085 1
1083 1086 1
1084 1085 1
1084 1086 1
1084 1087 1
1084 1089 1
1084 1100 1
1084 1103 1
1084 1104 1
1085 1086 1
1085 1099 1
1085 1100 1
1085 1103 1
1085 1149 1
1085 1152 1
1085 1153 1
1085 1169 1
1086 1087 1
1086 1089 1
1086 1141 1
1086 1152 1
1086 1153 1
1086 1156 1
1087 1088 1
1087 1089 1
1088 1089 1
1088 1104 1
1088 1107 1
1089 1103 1
1089 1104 1
1089 1107 1
1089 1153 1
1089 1156 1
1089 1157 1
1089 1173 1
1090 1091 1
1090 1092 1
1090 1094 1
1090 1109 1
1090 1110 1
1091 1092 1
1091 1094 1
1091 1143 1
1091 1159 1
1091 1161 1
1092 1093 1
1092 1094 1
1092 1095 1
1093 1094 1
1093 1095 1
1093 1096 1
1093 1098 1
1093 1110 1
1093 1113 1
1093 1114 1
1094 1095 1
1094 1109 1
1094 1110 1
1094 1113 1
1094 1159 1
1094 1161 1
1094 1162 1
1094 1179 1
1095 1096 1
1095 1098 1
1095 1145 1
1095 1161 1
1095 1162 1
1095 1165 1
1096 1097 1
1096 1098 1
1096 1099 1
1097 1098 1
1097 1099 1
1097 1100 1
1097 1102 1
1097 1114 1
1097 1117 1
1097 1118 1
1098 1099 1
1098 1113 1
1098 1114 1
1098 1117 1
1098 1162 1
1098 1165 1
1098 1166 1
1098 1183 1
1099 1100 1
1099 1102 1
1099 1149 1
1099 1165 1
1099 1166 1
1099 1169 1
1100 1101 1
1100 1102 1
1100 1103 1
1101 1102 1
1101 1103 1
1101 1104 1
1101 1106 1
1101 1118 1
1101 1121 1
1101 1122 1
1102 1103 1
1102 1117 1
1102 1118 1
1102 1121 1
1102 1166 1
1102 1169 1
1102 1170 1
1102 1187 1
1103 1104 1
1103 1106 1
1103 1153 1
1103 1169 1
1103 1170 1
1103 1173 1
1104 1105 1
1104 1106 1
1104 1107 1
1105 1106 1
1105 1107 1
1105 1122 1
1105 1125 1
1106 1107 1
1106 1121 1
1106 1122 1
1106 1125 1
1106 1170 1
1106 1173 1
1106 1174 1
1106 1191 1
1107 1157 1
1107 1173 1
1107 1174 1
1108 1109 1
1108 1110 1
1108 1112 1
1108 1126 1
1109 1110 1
1109 1112 1
1109 1159 1
1109 1177 1
1109 1179 1
1110 1111 1
1110 1112 1
1110 1113 1
1111 1112 1
1111 1113 1
1111 1114 1
1111 1116 1
1111 1126 1
1111 1128 1
1111 1129 1
1112 1113 1
1112 1126 1
1112 1128 1
1112 1177 1
1112 1179 1
1112 1180 1
1112 1195 1
1113 1114 1
1113 1116 1
1113 1162 1
1113 1179 1
1113 1180 1
1113 1183 1
1114 1115 1
1114 1116 1
1114 1117 1
1115 1116 1
1115 1117 1
1115 1118 1
1115 1120 1
1115 1129 1
1115 1132 1
1115 1133 1
1116 1117 1
1116 1128 1
1116 1129 1
1116 1132 1
1116 1180 1
1116 1183 1
1116 1184 1
1116 1198 1
1117 1118 1
1117 1120 1
1117 1166 1
1117 1183 1
1117 1184 1
1117 1187 1
1118 1119 1
1118 1120 1
1118 1121 1
1119 1120 1
1119 1121 1
1119 1122 1
1119 1124 1
1119 1133 1
1119 1136 1
1119 1137 1
1120 1121 1
1120 1132 1
1120 1133 1
1120 1136 1
1120 1184 1
1120 1187 1
1120 1188 1
1120 1202 1
1121 1122 1
1121 1124 1
1121 1170 1
1121 1187 1
1121 1188 1
1121 1191 1
1122 1123 1
1122 1124 1
1122 1125 1
1123 1124 1
1123 1125 1
1123 1137 1
1124 1125 1
1124 1136 1
1124 1137 1
1124 1188 1
1124 1191 1
1124 1192 1
1124 1206 1
1125 1174 1
1125 1191 1
1125 1192 1
1126 1127 1
1126 1128 1
1127 1128 1
1127 1129 1
1127 1131 1
1128 1129 1
1128 1131 1
1128 1180 1
1128 1195 1
1128 1196 1
1128 1198 1
1129 1130 1
1129 1131 1
1129 1132 1
1130 1131 1
1130 1132 1
1130 1133 1
1130 1135 1
1131 1132 1
1131 1196 1
1131 1198 1
1131 1199 1
1132 1133 1
1132 1135 1
1132 1184 1
1132 1198 1
1132 1199 1
1132 1202 1
1133 1134 1
1133 1135 1
1133 1136 1
1134 1135 1
1134 1136 1
1134 1137 1
1135 1136 1
1135 1199 1
1135 1202 1
1135 1203 1
1136 1137 1
1136 1188 1
1136 1202 1
1136 1203 1
1136 1206 1
1138 1140 1
1138 1144 1
1138 1147 1
1138 1148 1
1139 1140 1
1139 1142 1
1139 1148 1
1139 1151 1
1139 1152 1
1140 1147 1
1140 1148 1
1140 1151 1
1141 1142 1
1141 1152 1
1141 1155 1
1141 1156 1
1142 1151 1
1142 1152 1
1142 1155 1
1143 1144 1
1143 1146 1
1143 1160 1
1143 1161 1
1144 1145 1
1144 1146 1
1144 1147 1
1145 1146 1
1145 1147 1
1145 1148 1
1145 1150 1
1145 1161 1
1145 1164 1
1145 1165 1
1146 1147 1
1146 1160 1
1146 1161 1
1146 1164 1
1147 1148 1
1147 1150 1
1148 1149 1
1148 1150 1
1148 1151 1
1149 1150 1
1149 1151 1
1149 1152 1
1149 1154 1
1149 1165 1
1149 1168 1
1149 1169 1
1150 1151 1
1150 1164 1
1150 1165 1
1150 1168 1
1151 1152 1
1151 1154 1
1152 1153 1
1152 1154 1
1152 1155 1
1153 1154 1
1153 1155 1
1153 1156 1
1153 1158 1
1153 1169 1
1153 1172 1
1153 1173 1
1154 1155 1
1154 1168 1
1154 1169 1
1154 1172 1
1155 1156 1
1155 1158 1
1156 1157 1
1156 1158 1
1157 1158 1
1157 1173 1
1157 1176 1
1158 1172 1
1158 1173 1
1158 1176 1
1159 1160 1
1159 1161 1
1159 1163 1
1159 1178 1
1159 1179 1
1160 1161 1
1160 1163 1
1161 1162 1
1161 1163 1
1161 1164 1
1162 1163 1
1162 1164 1
1162 1165 1
1162 1167 1
1162 1179 1
1162 1182 1
1162 1183 1
1163 1164 1
1163 1178 1
1163 1179 1
1163 1182 1
1164 1165 1
1164 1167 1
1165 1166 1
1165 1167 1
1165 1168 1
1166 1167 1
1166 1168 1
1166 1169 1
1166 1171 1
1166 1183 1
1166 1186 1
1166 1187 1
1167 1168 1
1167 1182 1
1167 1183 1
1167 1186 1
1168 1169 1
1168 1171 1
1169 1170 1
1169 1171 1
1169 1172 1
1170 1171 1
1170 1172 1
1170 1173 1
1170 1175 1
1170 1187 1
1170 1190 1
1170 1191 1
1171 1172 1
1171 1186 1
1171 1187 1
1171 1190 1
1172 1173 1
1172 1175 1
1173 1174 1
1173 1175 1
1173 1176 1
1174 1175 1
1174 1176 1
1174 1191 1
1174 1194 1
1175 1176 1
1175 1190 1
1175 1191 1
1175 1194 1
1177 1178 1
1177 1179 1
1177 1181 1
1177 1195 1
1178 1179 1
1178 1181 1
1179 1180 1
1179 1181 1
1179 1182 1
1180 1181 1
1180 1182 1
1180 1183 1
1180 1185 1
1180 1195 1
1180 1197 1
1180 1198 1
1181 1182 1
1181 1195 1
1181 1197 1
1182 1183 1
1182 1185 1
1183 1184 1
1183 1185 1
1183 1186 1
1184 1185 1
1184 1186 1
1184 1187 1
1184 1189 1
1184 1198 1
1184 1201 1
1184 1202 1
1185 1186 1
1185 1197 1
1185 1198 1
1185 1201 1
1186 1187 1
1186 1189 1
1187 1188 1
1187 1189 1
1187 1190 1
1188 1189 1
1188 1190 1
1188 1191 1
1188 1193 1
1188 1202 1
1188 1205 1
1188 1206 1
1189 1190 1
1189 1201 1
1189 1202 1
1189 1205 1
1190 1191 1
1190 1193 1
1191 1192 1
1191 1193 1
1191 1194 1
1192 1193 1
1192 1194 1
1192 1206 1
1193 1194 1
1193 1205 1
1193 1206 1
1195 1196 1
1195 1197 1
1196 1197 1
1196 1198 1
1196 1200 1
1197 1198 1
1197 1200 1
1198 1199 1
1198 1200 1
1198 1201 1
1199 1200 1
1199 1201 1
1199 1202 1
1199 1204 1
1200 1201 1
1201 1202 1
1201 1204 1
1202 1203 1
1202 1204 1
1202 1205 1
1203 1204 1
1203 1205 1
1203 1206 1
1204 1205 1
1205 1206 1
;sub-graft
1 415 1
7 553 1
13 622 1
19 760 1
25 898 1
31 967 1
37 1105 1
43 447 1
49 585 1
55 654 1
61 792 1
67 930 1
73 999 1
79 1137 1
85 445 1
91 578 1
97 652 1
103 785 1
109 859 1
115 997 1
121 1066 1
127 437 1
133 575 1
139 644 1
145 782 1
151 920 1
157 989 1
163 1127 1
169 419 1
175 556 1
181 626 1
187 763 1
193 833 1
199 970 1
205 1108 1
211 401 1
217 522 1
223 608 1
229 729 1
235 815 1
241 936 1
247 1074 1
253 379 1
259 517 1
265 586 1
271 724 1
277 862 1
283 931 1
289 1069 1
295 383 1
301 518 1
307 590 1
313 725 1
319 797 1
325 935 1
331 1004 1
337 397 1
343 535 1
349 604 1
355 742 1
361 880 1
367 949 1
373 1087 1

[ angles ]
1 2 3 2
2 3 4 2
3 4 5 2
4 5 6 2
7 8 9 2
8 9 10 2
9 10 11 2
10 11 12 2
13 14 15 2
14 15 16 2
15 16 17 2
16 17 18 2
19 20 21 2
20 21 22 2
21 22 23 2
22 23 24 2
25 26 27 2
26 27 28 2
27 28 29 2
28 29 30 2
31 32 33 2
32 33 34 2
33 34 35 2
34 35 36 2
37 38 39 2
38 39 40 2
39 40 41 2
40 41 42 2
43 44 45 2
44 45 46 2
45 46 47 2
46 47 48 2
49 50 51 2
50 51 52 2
51 52 53 2
52 53 54 2
55 56 57 2
56 57 58 2
57 58 59 2
58 59 60 2
61 62 63 2
62 63 64 2
63 64 65 2
64 65 66 2
67 68 69 2
68 69 70 2
69 70 71 2
70 71 72 2
73 74 75 2
74 75 76 2
75 76 77 2
76 77 78 2
79 80 81 2
80 81 82 2
81 82 83 2
82 83 84 2
85 86 87 2
86 87 88 2
87 88 89 2
88 89 90 2
91 92 93 2
92 93 94 2
93 94 95 2
94 95 96 2
97 98 99 2
98 99 100 2
99 100 101 2
100 101 102 2
103 104 105 2
104 105 106 2
105 106 107 2
106 107 108 2
109 110 111 2
110 111 112 2
111 112 113 2
112 113 114 2
115 116 117 2
116 117 118 2
117 118 119 2
118 119 120 2
121 122 123 2
122 123 124 2
123 124 125 2
124 125 126 2
127 128 129 2
128 129 130 2
129 130 131 2
130 131 132 2
133 134 135 2
134 135 136 2
135 136 137 2
136 137 138 2
139 140 141 2
140 141 142 2
141 142 143 2
142 143 144 2
145 146 147 2
146 147 148 2
147 148 149 2
148 149 150 2
151 152 153 2
152 153 154 2
153 154 155 2
154 155 156 2
157 158 159 2
158 159 160 2
159 160 161 2
160 161 162 2
163 164 165 2
164 165 166 2
165 166 167 2
166 167 168 2
169 170 171 2
170 171 172 2
171 172 173 2
172 173 174 2
175 176 177 2
176 177 178 2
177 178 179 2
178 179 180 2
181 182 183 2
182 183 184 2
183 184 185 2
184 185 186 2
187 188 189 2
188 189 190 2
189 190 191 2
190 191 192 2
193 194 195 2
194 195 196 2
195 196 197 2
196 197 198 2
199 200 201 2
200 201 202 2
201 202 203 2
202 203 204 2
205 206 207 2
206 207 208 2
207 208 209 2
208 209 210 2
211 212 213 2
212 213 214 2
213 214 215 2
214 215 216 2
217 218 219 2
218 219 220 2
219 220 221 2
220 221 222 2
223 224 225 2
224 225 226 2
225 226 227 2
226 227 228 2
229 230 231 2
230 231 232 2
231 232 233 2
232 233 234 2
235 236 237 2
236 237 238 2
237 238 239 2
238 239 240 2
241 242 243 2
242 243 244 2
243 244 245 2
244 245 246 2
247 248 249 2
248 249 250 2
249 250 251 2
250 251 252 2
253 254 255 2
254 255 256 2
255 256 257 2
256 257 258 2
259 260 261 2
260 261 262 2
261 262 263 2
262 263 264 2
265 266 267 2
266 267 268 2
267 268 269 2
268 269 270 2
271 272 273 2
272 273 274 2
273 274 275 2
274 275 276 2
277 278 279 2
278 279 280 2
279 280 281 2
280 281 282 2
283 284 285 2
284 285 286 2
285 286 287 2
286 287 288 2
289 290 291 2
290 291 292 2
291 292 293 2
292 293 294 2
295 296 297 2
296 297 298 2
297 298 299 2
298 299 300 2
301 302 303 2
302 303 304 2
303 304 305 2
304 305 306 2
307 308 309 2
308 309 310 2
309 310 311 2
310 311 312 2
313 314 315 2
314 315 316 2
315 316 317 2
316 317 318 2
319 320 321 2
320 321 322 2
321 322 323 2
322 323 324 2
325 326 327 2
326 327 328 2
327 328 329 2
328 329 330 2
331 332 333 2
332 333 334 2
333 334 335 2
334 335 336 2
337 338 339 2
338 339 340 2
339 340 341 2
340 341 342 2
343 344 345 2
344 345 346 2
345 346 347 2
346 347 348 2
349 350 351 2
350 351 352 2
351 352 353 2
352 353 354 2
355 356 357 2
356 357 358 2
357 358 359 2
358 359 360 2
361 362 363 2
362 363 364 2
363 364 365 2
364 365 366 2
367 368 369 2
368 369 370 2
369 370 371 2
370 371 372 2
373 374 375 2
374 375 376 2
375 376 377 2
376 377 378 2

[ dihedrals ]

[ pairs ]
;from 1-4 pair
